/*--------------------------------*- C++ -*----------------------------------*\
| =========                 |                                                 |
| \\      /  F ield         | OpenFOAM: The Open Source CFD Toolbox           |
|  \\    /   O peration     | Version:  2.3.x                                 |
|   \\  /    A nd           | Web:      www.OpenFOAM.org                      |
|    \\/     M anipulation  |                                                 |
\*---------------------------------------------------------------------------*/
FoamFile
{
    version     2.0;
    format      ascii;
    class       volScalarField;
    location    "0.024";
    object      C;
}
// * * * * * * * * * * * * * * * * * * * * * * * * * * * * * * * * * * * * * //

dimensions      [0 -3 0 0 1 0 0];

internalField   nonuniform List<scalar> 
10000
(
1.6361435e-05
1.748185e-05
1.7723574e-05
1.7481851e-05
1.6361437e-05
1.9541804e-05
2.0038538e-05
2.0170607e-05
2.0038536e-05
1.9541802e-05
2.0789005e-05
2.100211e-05
2.1055808e-05
2.10021e-05
2.0788991e-05
2.1169966e-05
2.124031e-05
2.1254268e-05
2.1240308e-05
2.1169962e-05
2.1270909e-05
2.1288723e-05
2.1291106e-05
2.1288723e-05
2.1270909e-05
1.909663e-06
3.1488267e-06
3.8617154e-06
3.1488232e-06
1.9096597e-06
1.0593267e-05
1.2708475e-05
1.352575e-05
1.2708468e-05
1.0593253e-05
1.7787019e-05
1.9306764e-05
1.9691983e-05
1.9306717e-05
1.7786958e-05
2.0459361e-05
2.0910756e-05
2.1002532e-05
2.0910763e-05
2.0459365e-05
2.110937e-05
2.123377e-05
2.1251046e-05
2.1233773e-05
2.1109392e-05
2.5733727e-07
3.6173022e-07
4.2877966e-07
3.617303e-07
2.5733729e-07
6.2657857e-06
8.0147799e-06
8.6522342e-06
8.0147746e-06
6.2657796e-06
1.4125672e-05
1.6234766e-05
1.6950345e-05
1.6234805e-05
1.412571e-05
1.8957787e-05
2.0148289e-05
2.0415899e-05
2.014833e-05
1.895784e-05
2.0740958e-05
2.1104244e-05
2.1156355e-05
2.1104253e-05
2.0741039e-05
9.8553135e-08
1.2910873e-07
1.392252e-07
1.2910926e-07
9.8554204e-08
3.416179e-06
5.2464852e-06
5.9098635e-06
5.2465023e-06
3.4162109e-06
1.1103657e-05
1.3589014e-05
1.4408933e-05
1.3589055e-05
1.1103713e-05
1.7104279e-05
1.8970872e-05
1.943531e-05
1.8970907e-05
1.7104354e-05
2.0049427e-05
2.0837677e-05
2.0960741e-05
2.0837693e-05
2.0049474e-05
4.8490133e-08
7.2573786e-08
8.1507424e-08
7.2574122e-08
4.8490692e-08
1.8063219e-06
3.2686752e-06
3.9206365e-06
3.2686909e-06
1.806342e-06
8.748159e-06
1.1284385e-05
1.2204169e-05
1.1284411e-05
8.7482042e-06
1.5233419e-05
1.7596625e-05
1.8255365e-05
1.7596637e-05
1.5233455e-05
1.9133589e-05
2.0399457e-05
2.0632541e-05
2.0399449e-05
1.9133577e-05
2.6048951e-08
4.1254446e-08
4.8624236e-08
4.1254625e-08
2.6049249e-08
1.0118109e-06
1.9398269e-06
2.445559e-06
1.9398356e-06
1.011822e-06
7.032477e-06
9.4186361e-06
1.0323318e-05
9.4186547e-06
7.0325142e-06
1.3556851e-05
1.6198532e-05
1.7004566e-05
1.6198555e-05
1.3556891e-05
1.8101776e-05
1.9825522e-05
2.0186111e-05
1.9825544e-05
1.8101799e-05
1.5822365e-08
2.4142075e-08
2.8743039e-08
2.414212e-08
1.5822482e-08
6.3515314e-07
1.1755251e-06
1.4960671e-06
1.1755277e-06
6.3515784e-07
5.7445914e-06
7.9660398e-06
8.8138121e-06
7.9660512e-06
5.7446187e-06
1.2125823e-05
1.488121e-05
1.5787085e-05
1.4881219e-05
1.2125843e-05
1.7055602e-05
1.9168479e-05
1.9662593e-05
1.9168496e-05
1.7055611e-05
1.0617575e-08
1.5340803e-08
1.7899362e-08
1.5340759e-08
1.0617579e-08
4.3716528e-07
7.6998658e-07
9.6034703e-07
7.6998494e-07
4.371657e-07
4.7222389e-06
6.8187345e-06
7.609865e-06
6.8187362e-06
4.7222483e-06
1.0911573e-05
1.3683991e-05
1.4644069e-05
1.3683988e-05
1.0911575e-05
1.6047013e-05
1.8464769e-05
1.9086611e-05
1.8464781e-05
1.6047015e-05
7.5366807e-09
1.0606789e-08
1.2084559e-08
1.0606733e-08
7.5366538e-09
3.1648496e-07
5.4598443e-07
6.6555878e-07
5.4598198e-07
3.164841e-07
3.8765676e-06
5.8712334e-06
6.6221705e-06
5.8712321e-06
3.8765695e-06
9.8573503e-06
1.2599904e-05
1.3584319e-05
1.2599897e-05
9.8573486e-06
1.5088123e-05
1.7732206e-05
1.8471599e-05
1.7732222e-05
1.5088136e-05
5.4919061e-09
7.7704164e-09
8.7491783e-09
7.7703538e-09
5.4918516e-09
2.3432989e-07
4.0825542e-07
4.9241952e-07
4.0825245e-07
2.3432781e-07
3.163155e-06
5.0559515e-06
5.7840259e-06
5.0559421e-06
3.1631434e-06
8.929865e-06
1.1621644e-05
1.2607689e-05
1.1621624e-05
8.9298485e-06
1.418292e-05
1.6984515e-05
1.7824011e-05
1.6984503e-05
1.4182904e-05
4.0696882e-09
5.8739291e-09
6.6136159e-09
5.8738823e-09
4.0696461e-09
1.7599931e-07
3.1389741e-07
3.7899254e-07
3.138951e-07
1.7599762e-07
2.5740942e-06
4.3354046e-06
5.0447734e-06
4.3353937e-06
2.5740812e-06
8.0917916e-06
1.0732673e-05
1.171305e-05
1.0732654e-05
8.0917771e-06
1.3332544e-05
1.6236563e-05
1.7157935e-05
1.6236549e-05
1.3332532e-05
3.0515483e-09
4.5090787e-09
5.1188022e-09
4.5090358e-09
3.0515076e-09
1.3351685e-07
2.4446359e-07
2.9784706e-07
2.4446138e-07
1.3351515e-07
2.0909684e-06
3.6913277e-06
4.3804185e-06
3.6913112e-06
2.090951e-06
7.3326782e-06
9.9261774e-06
1.0891599e-05
9.9261517e-06
7.3326556e-06
1.2536527e-05
1.5500773e-05
1.6483929e-05
1.5500731e-05
1.2536489e-05
2.3135112e-09
3.4953787e-09
4.0094657e-09
3.4953478e-09
2.3134842e-09
1.0227165e-07
1.9190305e-07
2.3640049e-07
1.9190139e-07
1.0227047e-07
1.6998327e-06
3.1261582e-06
3.7780121e-06
3.1261411e-06
1.6998176e-06
6.6451076e-06
9.1847812e-06
1.0141531e-05
9.1847593e-06
6.6450872e-06
1.1793902e-05
1.4787729e-05
1.5815687e-05
1.4787691e-05
1.1793869e-05
1.7740207e-09
2.7273978e-09
3.1625886e-09
2.7273728e-09
1.7739998e-09
7.9148496e-08
1.5141581e-07
1.886571e-07
1.5141441e-07
7.914755e-08
1.3863626e-06
2.6348141e-06
3.2392634e-06
2.6347948e-06
1.3863479e-06
6.0213333e-06
8.5004379e-06
9.4466468e-06
8.5004151e-06
6.0213074e-06
1.1100779e-05
1.4101798e-05
1.5159451e-05
1.4101754e-05
1.1100737e-05
1.3760414e-09
2.1392757e-09
2.5055069e-09
2.1392613e-09
1.3760319e-09
6.1906716e-08
1.199592e-07
1.5103109e-07
1.1995833e-07
6.1906243e-08
1.136195e-06
2.2128456e-06
2.7621677e-06
2.2128292e-06
1.1361848e-06
5.4536724e-06
7.8679061e-06
8.8006696e-06
7.8678882e-06
5.4536482e-06
1.0453139e-05
1.3446654e-05
1.4521805e-05
1.3446627e-05
1.045311e-05
1.0794022e-09
1.6867022e-09
1.9911866e-09
1.6866954e-09
1.0793998e-09
4.8932313e-08
9.5446441e-08
1.2117054e-07
9.5445982e-08
4.8932154e-08
9.3646611e-07
1.855338e-06
2.3446443e-06
1.8553252e-06
9.3645983e-07
4.9355752e-06
7.2814395e-06
8.1986098e-06
7.2814241e-06
4.9355502e-06
9.8458217e-06
1.2821769e-05
1.3904637e-05
1.2821757e-05
9.8458007e-06
8.5563234e-10
1.3378411e-09
1.5878552e-09
1.3378432e-09
8.5563844e-10
3.9060228e-08
7.6342089e-08
9.7468336e-08
7.6342126e-08
3.9060447e-08
7.7630713e-07
1.5562499e-06
1.9848582e-06
1.5562438e-06
7.7630676e-07
4.4617511e-06
6.7366943e-06
7.6368733e-06
6.7366849e-06
4.4617337e-06
9.2753593e-06
1.222827e-05
1.3311833e-05
1.2228283e-05
9.2753573e-06
6.8469675e-10
1.0685919e-09
1.2718804e-09
1.0686007e-09
6.8470802e-10
3.1458775e-08
6.1452649e-08
7.8700013e-08
6.1453072e-08
3.1459238e-08
6.4702726e-07
1.3084141e-06
1.6792888e-06
1.3084153e-06
6.4703163e-07
4.0278875e-06
6.2295629e-06
7.1115772e-06
6.2295601e-06
4.0278797e-06
8.7375745e-06
1.1663827e-05
1.2742942e-05
1.1663861e-05
8.7375882e-06
5.5246932e-10
8.6022943e-10
1.0246629e-09
8.6024348e-10
5.5248499e-10
2.553485e-08
4.9828113e-08
6.387534e-08
4.9828856e-08
2.5535527e-08
5.4186108e-07
1.1041537e-06
1.4227933e-06
1.1041621e-06
5.418703e-07
3.6305664e-06
5.7568397e-06
6.619884e-06
5.7568476e-06
3.6305758e-06
8.230022e-06
1.1128363e-05
1.22001e-05
1.112842e-05
8.2300571e-06
4.4895937e-10
6.9820159e-10
8.3121708e-10
6.98218e-10
4.4897668e-10
2.086398e-08
4.0710932e-08
5.2169943e-08
4.0711836e-08
2.0864746e-08
4.5562778e-07
9.3596671e-07
1.2091247e-06
9.3598005e-07
4.5563991e-07
3.2668561e-06
5.3152194e-06
6.1586298e-06
5.3152383e-06
3.2668829e-06
7.7492575e-06
1.0618583e-05
1.1681058e-05
1.0618654e-05
7.7493096e-06
3.6703748e-10
5.7117084e-10
6.7926918e-10
5.7118792e-10
3.6705576e-10
1.7142858e-08
3.3509082e-08
4.2903181e-08
3.3510045e-08
1.714368e-08
3.8441072e-07
7.9707578e-07
1.0316264e-06
7.9709245e-07
3.8442508e-07
2.9344152e-06
4.9021973e-06
5.7253633e-06
4.9022291e-06
2.9344621e-06
7.2937133e-06
1.0134033e-05
1.1186795e-05
1.0134115e-05
7.2937847e-06
3.0164345e-10
4.7069289e-10
5.5923685e-10
4.7070898e-10
3.0166087e-10
1.4154941e-08
2.7773617e-08
3.5531773e-08
2.7774534e-08
1.4155728e-08
3.2518204e-07
6.8177842e-07
8.8408558e-07
6.8179591e-07
3.2519668e-07
2.6310322e-06
4.5152437e-06
5.3174038e-06
4.5152868e-06
2.6310939e-06
6.8606047e-06
9.6710235e-06
1.0713883e-05
9.6711091e-06
6.8606898e-06
2.4892108e-10
3.9054207e-10
4.6388471e-10
3.9055626e-10
2.4893682e-10
1.1732402e-08
2.3169222e-08
2.9638764e-08
2.317004e-08
1.1733119e-08
2.7567152e-07
5.8534583e-07
7.6083117e-07
5.8536256e-07
2.7568558e-07
2.3549437e-06
4.1527219e-06
4.9329199e-06
4.1527747e-06
2.3550187e-06
6.4491699e-06
9.229409e-06
1.026302e-05
9.2294937e-06
6.4492675e-06
2.0618012e-10
3.2582588e-10
3.8722639e-10
3.2583771e-10
2.061939e-10
9.7582119e-09
1.9428239e-08
2.4871292e-08
1.9428928e-08
9.7588465e-09
2.3418131e-07
5.0415204e-07
6.5723946e-07
5.0416701e-07
2.341946e-07
2.1044077e-06
3.8128022e-06
4.5697993e-06
3.8128609e-06
2.1044848e-06
6.0571501e-06
8.805479e-06
9.8301914e-06
8.8055581e-06
6.0572539e-06
1.7134542e-10
2.7304107e-10
3.2500413e-10
2.7304975e-10
1.7135677e-10
8.1413487e-09
1.6358993e-08
2.0978824e-08
1.6359499e-08
8.1418792e-09
1.9930713e-07
4.3529634e-07
5.6964285e-07
4.3530836e-07
1.9931871e-07
1.8776308e-06
3.4946384e-06
4.226969e-06
3.4946989e-06
1.8777055e-06
5.6842404e-06
8.3996959e-06
9.4163595e-06
8.3997652e-06
5.6843458e-06
1.4280144e-10
2.2972366e-10
2.7394816e-10
2.297302e-10
1.4280992e-10
6.8102422e-09
1.3826216e-08
1.7766613e-08
1.3826605e-08
6.8106425e-09
1.6987577e-07
3.7668497e-07
4.9489127e-07
3.7669543e-07
1.6988482e-07
1.6729327e-06
3.1968112e-06
3.9029719e-06
3.1968678e-06
1.6729967e-06
5.328672e-06
8.0083855e-06
9.0172192e-06
8.0084443e-06
5.3287726e-06
1.1929174e-10
1.9394507e-10
2.319294e-10
1.9394931e-10
1.1929793e-10
5.7090723e-09
1.1723147e-08
1.5108977e-08
1.1723408e-08
5.7093668e-09
1.4496009e-07
3.2657571e-07
4.311126e-07
3.2658352e-07
1.4496702e-07
1.4886796e-06
2.9187438e-06
3.5971329e-06
2.9187908e-06
1.4887345e-06
4.9907364e-06
7.632821e-06
8.6343156e-06
7.6328649e-06
4.990828e-06
9.9891956e-11
1.6416781e-10
1.970011e-10
1.6417031e-10
9.9895711e-11
4.7966187e-09
9.9637974e-09
1.2888183e-08
9.9639585e-09
4.7967994e-09
1.2385753e-07
2.8345353e-07
3.7617502e-07
2.8345914e-07
1.2386203e-07
1.3234239e-06
2.6595399e-06
3.3083851e-06
2.6595787e-06
1.3234648e-06
4.6685881e-06
7.2691906e-06
8.2632438e-06
7.2692242e-06
4.6686647e-06
8.3829874e-11
1.3926131e-10
1.6774855e-10
1.3926257e-10
8.3831478e-11
4.0382127e-09
8.4851015e-09
1.1018933e-08
8.4851835e-09
4.0382919e-09
1.0595597e-07
2.4624196e-07
3.2859178e-07
2.4624494e-07
1.0595815e-07
1.175634e-06
2.4191985e-06
3.0369737e-06
2.4192225e-06
1.1756583e-06
4.3628237e-06
6.9195453e-06
7.906182e-06
6.919563e-06
4.3628768e-06
7.0491855e-11
1.1831705e-10
1.4311474e-10
1.1831755e-10
7.049195e-11
3.4060721e-09
7.2357863e-09
9.4371442e-09
7.2358191e-09
3.4060799e-09
9.0739648e-08
2.1399401e-07
2.8720307e-07
2.1399525e-07
9.0740166e-08
1.0434994e-06
2.196204e-06
2.7820975e-06
2.1962196e-06
1.0435103e-06
4.071444e-06
6.5802523e-06
7.5586444e-06
6.5802625e-06
4.0714772e-06
5.9393987e-11
1.0070112e-10
1.2229097e-10
1.0070043e-10
5.939294e-11
2.8782439e-09
6.1803858e-09
8.0938459e-09
6.1803473e-09
2.8781965e-09
7.779976e-08
1.8610307e-07
2.5113948e-07
1.861024e-07
7.779885e-08
9.2576582e-07
1.9910801e-06
2.543999e-06
1.9910823e-06
9.2576356e-07
3.7955236e-06
6.2541247e-06
7.2236034e-06
6.2541197e-06
3.7955304e-06
5.0129556e-11
8.5818967e-11
1.0463283e-10
8.5817745e-11
5.012801e-11
2.4361113e-09
5.2849934e-09
6.9496891e-09
5.2849227e-09
2.4360393e-09
6.6767767e-08
1.6189972e-07
2.1965443e-07
1.6189814e-07
6.6766164e-08
8.2076118e-07
1.8022491e-06
2.3218634e-06
1.8022437e-06
8.2075097e-07
3.5329015e-06
5.9371909e-06
6.8967081e-06
5.9371796e-06
3.5328911e-06
4.2388693e-11
7.3239885e-11
8.9636016e-11
7.3238313e-11
4.2386788e-11
2.0655023e-09
4.5251824e-09
5.9739307e-09
4.5250887e-09
2.065412e-09
5.736651e-08
1.4092715e-07
1.9218239e-07
1.4092477e-07
5.7364347e-08
7.2747205e-07
1.6296008e-06
2.1160787e-06
1.6295867e-06
7.2745421e-07
3.2849788e-06
5.6326515e-06
6.5814743e-06
5.6326278e-06
3.2849458e-06
3.5894799e-11
6.2572153e-11
7.6861031e-11
6.2570736e-11
3.5892988e-11
1.7536132e-09
3.8783115e-09
5.1393367e-09
3.878226e-09
1.7535266e-09
4.9326629e-08
1.2270275e-07
1.6815477e-07
1.2270049e-07
4.9324472e-08
6.4437484e-07
1.4714793e-06
1.9252534e-06
1.4714634e-06
6.4435506e-07
3.0493375e-06
5.3363192e-06
6.2731096e-06
5.3362947e-06
3.0492956e-06
3.0448721e-11
5.3537071e-11
6.5988336e-11
5.3535659e-11
3.0446935e-11
1.4912748e-09
3.3284498e-09
4.4263071e-09
3.3283636e-09
1.4911887e-09
4.2462051e-08
1.0691565e-07
1.4719931e-07
1.0691323e-07
4.2459831e-08
5.7071558e-07
1.3278344e-06
1.7498006e-06
1.3278145e-06
5.7069324e-07
2.8276901e-06
5.0522292e-06
5.9759787e-06
5.0521947e-06
2.8276338e-06
2.5859217e-11
4.5852549e-11
5.669995e-11
4.5851353e-11
2.5857847e-11
1.2695497e-09
2.8590961e-09
3.814867e-09
2.8590228e-09
1.2694834e-09
3.6574109e-08
9.3185979e-08
1.288603e-07
9.3183879e-08
3.6572355e-08
5.0515472e-07
1.1968472e-06
1.5879781e-06
1.1968292e-06
5.0513597e-07
2.6175129e-06
4.775776e-06
5.684747e-06
4.7757447e-06
2.6174605e-06
2.1997033e-11
3.9329628e-11
4.8786612e-11
3.9328526e-11
2.1995844e-11
1.0824557e-09
2.4593746e-09
3.2921359e-09
2.4593064e-09
1.0823977e-09
3.1537675e-08
8.129188e-08
1.1288821e-07
8.1289847e-08
3.1536096e-08
4.4714623e-07
1.0784443e-06
1.4402979e-06
1.0784248e-06
4.4712808e-07
2.4206579e-06
4.5114331e-06
5.4049829e-06
4.511395e-06
2.4205996e-06
1.8726187e-11
3.3760148e-11
4.2004045e-11
3.3759391e-11
1.8725393e-11
9.2357074e-10
2.1169331e-09
2.8425297e-09
2.1168859e-09
9.2353183e-10
2.7201855e-08
7.0925802e-08
9.8892233e-08
7.0924349e-08
2.7200773e-08
3.9548187e-07
9.7068889e-07
1.304591e-06
9.7067401e-07
3.9546883e-07
2.2342363e-06
4.2540196e-06
5.1302803e-06
4.2539902e-06
2.2341911e-06
1.5965495e-11
2.9027298e-11
3.6219784e-11
2.9026654e-11
1.5964821e-11
7.8912947e-10
1.8250411e-09
2.457881e-09
1.8250005e-09
7.8909626e-10
2.3487056e-08
6.1950938e-08
8.6715091e-08
6.1949645e-08
2.3486112e-08
3.4983962e-07
8.7372972e-07
1.181466e-06
8.7371526e-07
3.4982754e-07
2.0604396e-06
4.0088864e-06
4.8672491e-06
4.0088527e-06
2.0603921e-06
1.3616117e-11
2.4971293e-11
3.1245465e-11
2.4970908e-11
1.3615733e-11
6.7441915e-10
1.5740942e-09
2.1259983e-09
1.5740699e-09
6.7440014e-10
2.0276827e-08
5.4110174e-08
7.6025012e-08
5.4109378e-08
2.0276276e-08
3.0913842e-07
7.8555332e-07
1.0685355e-06
7.855439e-07
3.0913102e-07
1.8960402e-06
3.7700905e-06
4.6085604e-06
3.7700677e-06
1.8960085e-06
1.1629446e-11
2.1520174e-11
2.7000615e-11
2.1519841e-11
1.1629105e-11
5.7719287e-10
1.35997e-09
1.8419597e-09
1.3599488e-09
5.7717589e-10
1.752455e-08
4.7323517e-08
6.6734378e-08
4.7322805e-08
1.7524051e-08
2.7325651e-07
7.0650997e-07
9.6659492e-07
7.0650094e-07
2.732495e-07
1.7436086e-06
3.5437895e-06
4.3619838e-06
3.5437632e-06
1.7435753e-06
9.9304932e-12
1.8547809e-11
2.3334123e-11
1.8547648e-11
9.9303348e-12
4.9383996e-10
1.1749893e-09
1.5958494e-09
1.1749789e-09
4.9383207e-10
1.5136563e-08
4.1371486e-08
5.8552642e-08
4.1371128e-08
1.5136327e-08
2.4120005e-07
6.3454037e-07
8.7307938e-07
6.3453552e-07
2.4119655e-07
1.5995074e-06
3.3231292e-06
4.1190482e-06
3.3231137e-06
1.5994888e-06
8.4925828e-12
1.6016266e-11
2.02039e-11
1.6016105e-11
8.4924093e-12
4.2314285e-10
1.0170324e-09
1.3851718e-09
1.017022e-09
4.2313418e-10
1.3089619e-08
3.6221647e-08
5.1449354e-08
3.6221286e-08
1.3089359e-08
2.1301202e-07
5.70245e-07
7.8903471e-07
5.7023991e-07
2.1300816e-07
1.4666997e-06
3.1152248e-06
3.8887576e-06
3.1152058e-06
1.4666782e-06
7.2570721e-12
1.382417e-11
1.7486449e-11
1.3824109e-11
7.2570029e-12
3.6225139e-10
8.7985387e-10
1.2017208e-09
8.7984988e-10
3.6224795e-10
1.1306417e-08
3.1684727e-08
4.5168097e-08
3.1684584e-08
1.1306315e-08
1.8777198e-07
5.1156424e-07
7.1179732e-07
5.1156204e-07
1.877704e-07
1.3411645e-06
2.9122708e-06
3.6614179e-06
2.9122611e-06
1.3411544e-06
6.2115607e-12
1.1956634e-11
1.5166418e-11
1.1956543e-11
6.2114494e-12
3.1062248e-10
7.6270564e-10
1.0447125e-09
7.6269979e-10
3.1061693e-10
9.779607e-09
2.7762922e-08
3.972188e-08
2.7762716e-08
9.7794426e-09
1.6564978e-07
4.5932921e-07
6.4267363e-07
4.5932617e-07
1.6564733e-07
1.226232e-06
2.722341e-06
3.4473234e-06
2.7223271e-06
1.2262172e-06
5.3089088e-12
1.0330082e-11
1.314066e-11
1.0330043e-11
5.3088546e-12
2.6594494e-10
6.6038259e-10
9.0721377e-10
6.6038016e-10
2.6594228e-10
8.4439337e-09
2.4290168e-08
3.4881533e-08
2.4290084e-08
8.4438575e-09
1.4578767e-07
4.1149791e-07
5.7895022e-07
4.1149662e-07
1.4578657e-07
1.1175413e-06
2.5366623e-06
3.2355053e-06
2.5366552e-06
1.1175343e-06
4.5459884e-12
8.9451445e-12
1.1412198e-11
8.9450697e-12
4.5458893e-12
2.2811565e-10
5.7306746e-10
7.8962811e-10
5.7306267e-10
2.2811072e-10
7.3027053e-09
2.1293345e-08
3.069219e-08
2.129318e-08
7.3025606e-09
1.2844861e-07
3.6909666e-07
5.2217412e-07
3.6909426e-07
1.284465e-07
1.0187492e-06
2.3642401e-06
3.0375468e-06
2.3642283e-06
1.0187368e-06
3.8841105e-12
7.7315464e-12
9.8934208e-12
7.7314981e-12
3.8840436e-12
1.9522253e-10
4.9634042e-10
6.8600718e-10
4.9633737e-10
1.9521924e-10
6.2999641e-09
1.8624968e-08
2.6947566e-08
1.8624865e-08
6.2998691e-09
1.128321e-07
3.3011555e-07
4.6961942e-07
3.3011409e-07
1.1283076e-07
9.2521571e-07
2.1953652e-06
2.8412086e-06
2.1953577e-06
9.2520796e-07
3.3259992e-12
6.7000093e-12
8.5996326e-12
6.6999296e-12
3.3258976e-12
1.6744097e-10
4.3099311e-10
5.9755413e-10
4.3098802e-10
1.6743592e-10
5.445907e-09
1.6328707e-08
2.3715478e-08
1.6328532e-08
5.4457569e-09
9.9265533e-08
2.9573337e-07
4.2303543e-07
2.9573084e-07
9.9263313e-08
8.4087106e-07
2.0399154e-06
2.6593223e-06
2.0399032e-06
8.408581e-07
2.839363e-12
5.7903876e-12
7.4552309e-12
5.7903227e-12
2.8392825e-12
1.4316372e-10
3.7320988e-10
5.1908958e-10
3.7320576e-10
1.4315972e-10
4.6919907e-09
1.4272172e-08
2.0808646e-08
1.427203e-08
4.6918719e-09
8.7002546e-08
2.6398242e-07
3.7970933e-07
2.6398035e-07
8.7000782e-08
7.6086949e-07
1.8873063e-06
2.4784162e-06
1.8872963e-06
7.6085916e-07
2.4304473e-12
5.0195906e-12
6.4831946e-12
5.0195053e-12
2.430346e-12
1.2273377e-10
3.2415683e-10
4.5231861e-10
3.2415137e-10
1.2272871e-10
4.0525952e-09
1.250962e-08
1.8309652e-08
1.2509429e-08
4.0524417e-09
7.6411129e-08
2.3614882e-07
3.4154365e-07
2.3614595e-07
7.6408766e-08
6.8935161e-07
1.7481977e-06
2.3124875e-06
1.7481838e-06
6.8933722e-07
2.0720041e-12
4.3354006e-12
5.6174009e-12
4.3353258e-12
2.071919e-12
1.0478637e-10
2.8049593e-10
3.9267561e-10
2.8049114e-10
1.0478212e-10
3.4853392e-09
1.0921244e-08
1.6047344e-08
1.0921074e-08
3.4852089e-09
6.6797795e-08
2.1031532e-07
3.0585744e-07
2.103127e-07
6.6795747e-08
6.2134236e-07
1.6112246e-06
2.1469082e-06
1.6112115e-06
6.2132948e-07
1.7722225e-12
3.7582145e-12
4.8852316e-12
3.7581301e-12
1.7721286e-12
8.9756507e-11
2.4360393e-10
3.4215367e-10
2.4359851e-10
8.9751797e-11
3.0068637e-09
9.5673129e-09
1.4112963e-08
9.5671178e-09
3.0067174e-09
5.8551815e-08
1.8783553e-07
2.7465714e-07
1.8783245e-07
5.8549455e-08
5.6112509e-07
1.4877206e-06
1.9967302e-06
1.4877048e-06
5.6110967e-07
1.5079556e-12
3.2423055e-12
4.2283211e-12
3.2422303e-12
1.5078753e-12
7.6478419e-11
2.1053813e-10
2.9669491e-10
2.1053329e-10
7.6474382e-11
2.5800654e-09
8.3390269e-09
1.234952e-08
8.3388501e-09
2.5799385e-09
5.1032143e-08
1.6685294e-07
2.4531078e-07
1.6685006e-07
5.103004e-08
5.0367133e-07
1.3656525e-06
1.8462706e-06
1.3656369e-06
5.0365695e-07
1.288273e-12
2.8097142e-12
3.6761483e-12
2.8096375e-12
1.2881922e-12
6.5427758e-11
1.8277306e-10
2.5842813e-10
1.827681e-10
6.542368e-11
2.2224935e-09
7.299343e-09
1.0852284e-08
7.2991601e-09
2.2223641e-09
4.4634092e-08
1.4875427e-07
2.1988335e-07
1.4875122e-07
4.4631904e-08
4.5333844e-07
1.2569086e-06
1.7115023e-06
1.2568917e-06
4.5332297e-07
1.0934332e-12
2.4201272e-12
3.1768462e-12
2.4200592e-12
1.0933639e-12
5.5605431e-11
1.5769906e-10
2.2372537e-10
1.5769465e-10
5.5601928e-11
1.9016432e-09
6.3492193e-09
9.4769544e-09
6.3490539e-09
1.9015306e-09
3.8768346e-08
1.3175153e-07
1.9580675e-07
1.3174868e-07
3.876639e-08
4.0511414e-07
1.1489092e-06
1.5758132e-06
1.1488924e-06
4.0509961e-07
9.3268203e-13
2.0959775e-12
2.760422e-12
2.0959126e-12
9.3261652e-13
4.749356e-11
1.3681125e-10
1.9474649e-10
1.3680704e-10
4.7490243e-11
1.635038e-09
5.5519157e-09
8.3194683e-09
5.5517562e-09
1.6349306e-09
3.3824602e-08
1.1723634e-07
1.7516586e-07
1.1723353e-07
3.3822704e-08
3.6336469e-07
1.0539753e-06
1.4559539e-06
1.0539582e-06
3.6335018e-07
7.8915658e-13
1.8015996e-12
2.3806206e-12
1.8015426e-12
7.8910072e-13
4.0235055e-11
1.1778872e-10
1.6823859e-10
1.1778501e-10
4.023222e-11
1.3942348e-09
4.8172701e-09
7.2472021e-09
4.8171275e-09
1.3941418e-09
2.9264364e-08
1.034971e-07
1.5547087e-07
1.0349451e-07
2.9262678e-08
3.2315691e-07
9.5911235e-07
1.3345239e-06
9.590956e-07
3.2314338e-07
6.7182672e-13
1.559002e-12
2.0669395e-12
1.5589502e-12
6.7177635e-13
3.4296434e-11
1.0209637e-10
1.4632271e-10
1.0209299e-10
3.4293874e-11
1.1961097e-09
4.2072059e-09
6.3543948e-09
4.2070749e-09
1.1960252e-09
2.5463151e-08
9.1908134e-08
1.3879464e-07
9.1905709e-08
2.5461596e-08
2.8880706e-07
8.7695295e-07
1.2289041e-06
8.7693678e-07
2.8879423e-07
5.6629278e-13
1.3365788e-12
1.7780332e-12
1.3365339e-12
5.6625022e-13
2.8942983e-11
8.7667748e-11
1.2607713e-10
8.766481e-11
2.8940814e-11
1.015835e-09
3.6397373e-09
5.5192398e-09
3.6396217e-09
1.0157625e-09
2.1931987e-08
8.0840705e-08
1.2273739e-07
8.0838497e-08
2.1930621e-08
2.5551551e-07
7.9422096e-07
1.1210612e-06
7.9420542e-07
2.5550373e-07
4.8097041e-13
1.1553972e-12
1.5422447e-12
1.1553577e-12
4.8093335e-13
2.4611971e-11
7.5905143e-11
1.0954044e-10
7.5902555e-11
2.461008e-11
8.6924197e-10
3.1743545e-09
4.8327358e-09
3.1742519e-09
8.6917843e-10
1.9026162e-08
7.1634813e-08
1.0933641e-07
7.163282e-08
1.9024946e-08
2.2749714e-07
7.237453e-07
1.0288673e-06
7.2373078e-07
2.2748638e-07
4.0358605e-13
9.8744564e-13
1.3226105e-12
9.8741196e-13
4.0355506e-13
2.0674988e-11
6.4969245e-11
9.4088982e-11
6.496703e-11
2.0673403e-11
7.3473605e-10
2.7366628e-09
4.1832434e-09
2.7365739e-09
7.3468222e-10
1.6304558e-08
6.2749718e-08
9.6292359e-08
6.2747939e-08
1.6303505e-08
2.0013188e-07
6.5209752e-07
9.3380701e-07
6.5208389e-07
2.0012217e-07
3.418447e-13
8.5253574e-13
1.1459153e-12
8.5250685e-13
3.4181844e-13
1.7532361e-11
5.6179835e-11
8.1651238e-11
5.6177931e-11
1.7531015e-11
6.2687145e-10
2.3830072e-09
3.6574732e-09
2.3829302e-09
6.268255e-10
1.4098236e-08
5.5478148e-08
8.5587763e-08
5.5476578e-08
1.4097324e-08
1.7748974e-07
5.9219268e-07
8.5410619e-07
5.9218023e-07
1.7748111e-07
2.8531476e-13
7.2585812e-13
9.7912527e-13
7.2583386e-13
2.8529306e-13
1.4648294e-11
4.7901423e-11
6.9872883e-11
4.7899821e-11
1.4647181e-11
5.2694456e-10
2.0460475e-09
3.1533336e-09
2.0459818e-09
5.2690614e-10
1.2011838e-08
4.8370709e-08
7.5031601e-08
4.8369335e-08
1.201106e-08
1.5516686e-07
5.3057192e-07
7.7091986e-07
5.3056052e-07
1.5515922e-07
2.4091938e-13
6.257982e-13
8.4724167e-13
6.2577774e-13
2.4090137e-13
1.238268e-11
4.1360414e-11
6.0556695e-11
4.135906e-11
1.2381754e-11
4.4812156e-10
1.7785607e-09
2.7526063e-09
1.7785048e-09
4.4808945e-10
1.0349899e-08
4.2663471e-08
6.6537379e-08
4.2662278e-08
1.0349239e-08
1.3705418e-07
4.8013531e-07
7.0270032e-07
4.8012505e-07
1.3704752e-07
1.9982149e-13
5.3039992e-13
7.2076344e-13
5.3038305e-13
1.9980681e-13
1.0280298e-11
3.5104076e-11
5.1592095e-11
3.5102957e-11
1.0279542e-11
3.7427282e-10
1.5197294e-09
2.3621395e-09
1.5196827e-09
3.7424634e-10
8.7602142e-09
3.6999553e-08
5.802751e-08
3.6998532e-08
8.7596602e-09
1.1898984e-07
4.2750043e-07
6.3041421e-07
4.2749126e-07
1.1898406e-07
1.6814913e-13
4.5656416e-13
6.2282423e-13
4.5655009e-13
1.6813716e-13
8.6599773e-12
3.0261636e-11
4.4650213e-11
3.0260701e-11
8.6593597e-12
3.1715247e-10
1.3185872e-09
2.0584933e-09
1.3185478e-09
3.1713071e-10
7.5198957e-09
3.2552735e-08
5.1337303e-08
3.2551857e-08
7.5194338e-09
1.0466182e-07
3.8546938e-07
5.7263178e-07
3.854612e-07
1.0465686e-07
1.3844843e-13
3.8486214e-13
5.2707767e-13
3.8485076e-13
1.3843881e-13
7.1367254e-12
2.5543134e-11
3.7839383e-11
2.5542375e-11
7.1362283e-12
2.6292245e-10
1.1202804e-09
1.7567811e-09
1.120248e-09
2.6290479e-10
6.3171913e-09
2.805716e-08
4.4503672e-08
2.8056423e-08
6.31681e-09
9.0169247e-08
3.4081638e-07
5.1024356e-07
3.4080923e-07
9.0165025e-08
1.1608299e-13
3.3073701e-13
4.5481536e-13
3.3072757e-13
1.1607524e-13
5.9898793e-12
2.1982296e-11
3.270074e-11
2.1981666e-11
5.9894781e-12
2.2196971e-10
9.7012792e-10
1.5283464e-09
9.7010083e-10
2.2195537e-10
5.4020393e-09
2.4622408e-08
3.9279888e-08
2.4621779e-08
5.401725e-09
7.8981224e-08
3.0618998e-07
4.6186347e-07
3.0618366e-07
7.8977642e-08
9.4762742e-14
2.7696539e-13
3.8246421e-13
2.769579e-13
9.4756616e-14
4.8937472e-12
1.8431838e-11
2.7535968e-11
1.8431337e-11
4.8934298e-12
1.8242457e-10
8.1861645e-10
1.2957739e-09
8.1859468e-10
1.8241313e-10
4.4988576e-09
2.1068782e-08
3.3813188e-08
2.1068265e-08
4.498603e-09
6.745306e-08
2.6856467e-07
4.0836832e-07
2.6855926e-07
6.7450074e-08
7.9163976e-14
2.3763976e-13
3.296026e-13
2.3763357e-13
7.9159083e-14
4.0921483e-12
1.5836921e-11
2.3765186e-11
1.5836507e-11
4.0918944e-12
1.534374e-10
7.0759339e-10
1.1255108e-09
7.0757523e-10
1.5342819e-10
3.832619e-09
1.8444426e-08
2.9777785e-08
1.8443987e-08
3.832411e-09
5.8844963e-08
2.4042529e-07
3.6840353e-07
2.4042054e-07
5.8842455e-08
6.3963795e-14
1.9739887e-13
2.7501345e-13
1.9739408e-13
6.3960021e-14
3.3088245e-12
1.3171103e-11
1.985483e-11
1.3170781e-11
3.3086283e-12
1.2480275e-10
5.9213342e-10
9.4660029e-10
5.9211917e-10
1.2479558e-10
3.1592937e-09
1.5646018e-08
2.5419116e-08
1.5645665e-08
3.1591292e-09
4.9748957e-08
2.0892217e-07
3.2280388e-07
2.089182e-07
4.9746917e-08
5.32601e-14
1.6918268e-13
2.3680952e-13
1.6917876e-13
5.3257122e-14
2.7576909e-12
1.1304015e-11
1.7121576e-11
1.1303751e-11
2.7575359e-12
1.0462568e-10
5.1112688e-10
8.2131711e-10
5.1111509e-10
1.0461998e-10
2.6825713e-09
1.3669975e-08
2.2345808e-08
1.3669678e-08
2.6824384e-09
4.3247599e-08
1.8645057e-07
2.9035202e-07
1.8644713e-07
4.3245907e-08
4.2485132e-14
1.3909074e-13
1.9562731e-13
1.3908781e-13
4.2482918e-14
2.201151e-12
9.3040188e-12
1.416144e-11
9.3038205e-12
2.2010356e-12
8.4011507e-11
4.2324462e-10
6.8376586e-10
4.2323563e-10
8.400722e-11
2.1835451e-09
1.1471363e-08
1.8876693e-08
1.1471131e-08
2.1834435e-09
3.611616e-08
1.6019645e-07
2.5164584e-07
1.6019365e-07
3.6114827e-08
3.5317566e-14
1.1924739e-13
1.6854578e-13
1.1924504e-13
3.5315858e-14
1.8314682e-12
7.9876212e-12
1.2218695e-11
7.9874619e-12
1.831379e-12
7.0313901e-11
3.6536531e-10
5.934297e-10
3.6535802e-10
7.0310559e-11
1.8510195e-09
1.0016415e-08
1.6586479e-08
1.0016224e-08
1.8509389e-09
3.1335314e-08
1.427005e-07
2.2593993e-07
1.4269811e-07
3.1334229e-08
2.7678002e-14
9.6647572e-14
1.3732938e-13
9.6645915e-14
2.7676813e-14
1.4359819e-12
6.4806369e-12
9.9671236e-12
6.480524e-12
1.4359197e-12
5.5469674e-11
2.9820554e-10
4.8720805e-10
2.9820027e-10
5.5467313e-11
1.4810579e-09
8.2839091e-09
1.3816253e-08
8.2837657e-09
1.4809997e-09
2.5744699e-08
1.208078e-07
1.9306072e-07
1.2080593e-07
2.5743887e-08
2.3105382e-14
8.3249464e-14
1.1887325e-13
8.3248198e-14
2.3104504e-14
1.1998817e-12
5.5900358e-12
8.6402722e-12
5.589949e-12
1.1998356e-12
4.6619785e-11
2.5855886e-10
4.2467503e-10
2.5855473e-10
4.6618013e-11
1.2603584e-09
7.2584642e-09
1.2180358e-08
7.2583489e-09
1.2603137e-09
2.2400539e-08
1.0780069e-07
1.735854e-07
1.0779914e-07
2.2399895e-08
1.754472e-14
6.5861434e-14
9.4643275e-14
6.5860663e-14
1.7544198e-14
9.1131644e-13
4.4266657e-12
6.8864413e-12
4.4266123e-12
9.1128889e-13
3.5646993e-11
2.0600658e-10
3.4072838e-10
2.0600392e-10
3.5645908e-11
9.7912095e-10
5.8630953e-09
9.9209714e-09
5.8630165e-09
9.790924e-10
1.7920989e-08
8.9231851e-08
1.4521555e-07
8.9230722e-08
1.7920553e-08
1.5095624e-14
5.8008069e-14
8.3663923e-14
5.8007522e-14
1.5095259e-14
7.8500872e-13
3.9043417e-12
6.0964435e-12
3.9043032e-12
7.8498932e-13
3.0851769e-11
1.8244207e-10
3.0294627e-10
1.8244007e-10
3.0850984e-11
8.5539281e-10
5.2330187e-09
8.8954182e-09
5.2329564e-09
8.5537136e-10
1.5911539e-08
8.0686462e-08
1.3205593e-07
8.0685528e-08
1.5911197e-08
1.0283791e-14
4.2040107e-14
6.1201703e-14
4.2039993e-14
1.0283704e-14
5.3451228e-13
2.8317596e-12
4.4638519e-12
2.8317503e-12
5.3450742e-13
2.120483e-11
1.333987e-10
2.2377848e-10
1.3339801e-10
2.1204597e-11
6.0169277e-10
3.8979305e-09
6.7055935e-09
3.8979016e-09
6.0168473e-10
1.1674192e-08
6.2109577e-08
1.031763e-07
6.2109044e-08
1.1674032e-08
1.6361437e-05
1.748185e-05
1.772357e-05
1.7481847e-05
1.6361434e-05
1.9541802e-05
2.0038536e-05
2.0170609e-05
2.0038539e-05
1.9541804e-05
2.0788991e-05
2.1002102e-05
2.1055814e-05
2.1002114e-05
2.0789007e-05
2.1169962e-05
2.1240309e-05
2.1254269e-05
2.1240311e-05
2.1169967e-05
2.1270909e-05
2.1288723e-05
2.1291106e-05
2.1288723e-05
2.127091e-05
1.9096597e-06
3.148825e-06
3.8617234e-06
3.1488318e-06
1.9096648e-06
1.0593254e-05
1.2708471e-05
1.3525765e-05
1.2708484e-05
1.0593269e-05
1.7786958e-05
1.9306726e-05
1.9691995e-05
1.9306787e-05
1.7787034e-05
2.0459365e-05
2.0910761e-05
2.1002527e-05
2.0910757e-05
2.0459369e-05
2.1109391e-05
2.1233773e-05
2.1251046e-05
2.123377e-05
2.1109365e-05
2.5733732e-07
3.6173073e-07
4.2877985e-07
3.6173125e-07
2.5733799e-07
6.2657806e-06
8.0147792e-06
8.6522385e-06
8.0147916e-06
6.2657987e-06
1.4125711e-05
1.6234817e-05
1.6950352e-05
1.6234799e-05
1.4125705e-05
1.8957839e-05
2.0148324e-05
2.041588e-05
2.0148288e-05
1.8957806e-05
2.0741036e-05
2.1104258e-05
2.1156364e-05
2.1104256e-05
2.0740942e-05
9.8554216e-08
1.291094e-07
1.3922532e-07
1.2910897e-07
9.8553489e-08
3.4162115e-06
5.2465068e-06
5.9098671e-06
5.2464948e-06
3.4161908e-06
1.1103713e-05
1.3589068e-05
1.4408955e-05
1.3589043e-05
1.1103678e-05
1.7104356e-05
1.8970933e-05
1.9435352e-05
1.8970929e-05