/*--------------------------------*- C++ -*----------------------------------*\
| =========                 |                                                 |
| \\      /  F ield         | OpenFOAM: The Open Source CFD Toolbox           |
|  \\    /   O peration     | Version:  2.3.x                                 |
|   \\  /    A nd           | Web:      www.OpenFOAM.org                      |
|    \\/     M anipulation  |                                                 |
\*---------------------------------------------------------------------------*/
FoamFile
{
    version     2.0;
    format      ascii;
    class       volScalarField;
    location    "0.024";
    object      concSource;
}
// * * * * * * * * * * * * * * * * * * * * * * * * * * * * * * * * * * * * * //

dimensions      [0 -3 -1 0 1 0 0];

internalField   nonuniform List<scalar> 
10000
(
0.0030750656
0.0008349429
0.00049851177
0.00083494209
0.0030750627
4.1397297e-07
1.6904921e-07
1.2922799e-07
1.6904911e-07
4.1397276e-07
3.7544262e-08
3.0740943e-08
2.9307828e-08
3.0740946e-08
3.7544285e-08
2.5867051e-08
2.5080634e-08
2.4940795e-08
2.5080634e-08
2.5867052e-08
2.4705584e-08
2.4607632e-08
2.4596828e-08
2.4607632e-08
2.4705584e-08
0.036386637
0.035671564
0.034600492
0.03567158
0.036386654
0.00036856395
5.4452729e-05
2.7067911e-05
5.4453632e-05
0.0003685713
7.2324344e-07
1.6790624e-07
1.1518815e-07
1.6791914e-07
7.2332202e-07
4.9431653e-08
3.3102692e-08
3.0679371e-08
3.3102958e-08
4.9432593e-08
2.7694004e-08
2.5478932e-08
2.521394e-08
2.5478945e-08
2.7693983e-08
0.010715484
0.012168976
0.013118448
0.012168958
0.010715461
0.0037475752
0.0010180137
0.00056739629
0.0010179954
0.0037475056
1.2816217e-05
1.7182668e-06
9.1462407e-07
1.7181804e-06
1.2815468e-05
1.7219725e-07
6.1571068e-08
4.96197e-08
6.1567662e-08
1.7218586e-07
3.6801079e-08
2.7936415e-08
2.6962408e-08
2.7936197e-08
3.6796899e-08
0.0051550116
0.0058997248
0.0060385729
0.0058997358
0.0051550473
0.008057801
0.0041007073
0.0028256401
0.0041006413
0.0080576622
0.00010740976
1.3130225e-05
6.2391165e-06
1.3129355e-05
0.00010739978
7.3018744e-07
1.4756672e-07
1.009605e-07
1.4755878e-07
7.3010607e-07
6.0650591e-08
3.3561146e-08
3.0834818e-08
3.356082e-08
6.0645895e-08
0.0028001705
0.0037467854
0.0040351462
0.0037468023
0.0028001999
0.0084723679
0.0067872918
0.0056690869
0.0067872958
0.0084723896
0.00042199106
6.4328151e-05
3.0993746e-05
6.4326528e-05
0.00042197608
2.9786746e-06
4.0689781e-07
2.3931243e-07
4.0689192e-07
2.978554e-06
1.1716654e-07
4.4947748e-08
3.8288701e-08
4.4948478e-08
1.1716776e-07
0.0016070175
0.0022981945
0.002608382
0.0022982045
0.0016070343
0.0071366897
0.007119415
0.0067909986
0.0071194298
0.0071367164
0.0010115321
0.000203158
0.00010471212
0.00020315405
0.0010115056
1.0138972e-05
1.1254334e-06
5.9104689e-07
1.1253984e-06
1.0138437e-05
2.4741093e-07
6.6028302e-08
5.1453492e-08
6.6026909e-08
2.4740412e-07
0.0010253194
0.0014243588
0.0016380271
0.0014243623
0.0010253269
0.0059031905
0.0062594205
0.0063299026
0.0062594436
0.0059032234
0.001785192
0.00046604046
0.00025965361
0.00046603865
0.0017851794
2.7891338e-05
2.9023602e-06
1.4099436e-06
2.9023174e-06
2.7890671e-05
5.284677e-07
1.0260708e-07
7.272396e-08
1.0260454e-07
5.2845877e-07
0.00071500839
0.00094723678
0.0010704397
0.00094723537
0.00071500938
0.0049817459
0.0053620216
0.0054799415
0.0053620429
0.0049817682
0.0025922481
0.00085612906
0.00051539022
0.00085613806
0.002592266
6.3807262e-05
6.8358499e-06
3.1749812e-06
6.8358885e-06
6.3807498e-05
1.1040614e-06
1.6496303e-07
1.0640268e-07
1.6496117e-07
1.1040649e-06
0.00052370967
0.00067988291
0.00075192427
0.00067988034
0.00052370855
0.0042331984
0.0046834103
0.0047786039
0.0046834246
0.0042332111
0.0033054275
0.0013461467
0.00087208851
0.0013461688
0.0033054613
0.00012596319
1.4752734e-05
6.7344512e-06
1.4752906e-05
0.00012596377
2.2269236e-06
2.7167072e-07
1.6014485e-07
2.7166275e-07
2.2268663e-06
0.00039186484
0.00051394094
0.000562741
0.00051393762
0.00039186169
0.003574947
0.0041465857
0.004252391
0.004146593
0.0035749464
0.0038459705
0.001885181
0.0013074201
0.0018852253
0.0038460358
0.00022166232
2.9324788e-05
1.3441792e-05
2.9325936e-05
0.00022166942
4.3227189e-06
4.5534045e-07
2.4728702e-07
4.5534859e-07
4.3228252e-06
0.0002970573
0.00039913397
0.00043766541
0.00039913129
0.00029705464
0.0029987721
0.0036730159
0.0038176974
0.0036730166
0.0029987636
0.0041968712
0.0024152871
0.0017832964
0.0024153364
0.0041969207
0.00035458842
5.3883807e-05
2.5212698e-05
5.3885874e-05
0.00035459758
8.0251892e-06
7.685563e-07
3.8891691e-07
7.6856644e-07
8.0252841e-06
0.00022720554
0.00031368064
0.00034723324
0.00031367802
0.0002272028
0.0025011855
0.0032273785
0.0034197289
0.0032273737
0.0025011708
0.004368496
0.0028808249
0.0022534661
0.0028808862
0.0043685475
0.00052473184
9.2068979e-05
4.4439743e-05
9.2074056e-05
0.00052475365
1.4199614e-05
1.2942243e-06
6.180581e-07
1.2943048e-06
1.4200477e-05
0.00017529605
0.00024823473
0.00027796002
0.0002482327
0.00017529409
0.0020802489
0.002811071
0.0030377769
0.0028110613
0.0020802329
0.0043921368
0.0032484455
0.0026720586
0.0032484938
0.0043921601
0.00072793193
0.0001469442
7.3703598e-05
0.0001469512
0.00072795606
2.3917636e-05
2.1545987e-06
9.8400319e-07
2.1547213e-06
2.3918924e-05
0.00013653328
0.00019728208
0.00022352856
0.00019728031
0.00013653167
0.0017307498
0.0024289386
0.002674626
0.0024289248
0.0017307326
0.0043083556
0.0035040977
0.0030126528
0.0035041332
0.0043083605
0.00095732017
0.0002208059
0.0001154635
0.00022081632
0.0009573521
3.8414203e-05
3.5240322e-06
1.559503e-06
3.5242936e-06
3.8416951e-05
0.00010740377
0.0001573123
0.00018018784
0.00015731116
0.00010740292
0.0014437632
0.0020852377
0.0023353201
0.0020852226
0.0014437489
0.0041535593
0.00364993
0.0032607802
0.0036499334
0.0041535304
0.0012045123
0.00031479592
0.00017175594
0.00031480508
0.0012045301
5.9020935e-05
5.6412293e-06
2.4484552e-06
5.6415033e-06
5.9023581e-05
8.5333834e-05
0.00012589811
0.00014547057
0.00012589747
8.5333506e-05
0.0012091507
0.0017825597
0.00202453
0.0017825459
0.0012091401
0.0039553468
0.0037010583
0.003415476
0.0037010341
0.0039552966
0.0014603735
0.00042888158
0.00024402471
0.00042888715
0.0014603718
8.7066011e-05
8.8168266e-06
3.7932227e-06
8.8170819e-06
8.7068092e-05
6.8439402e-05
0.00010122953
0.00011768251
0.0001012295
6.8439713e-05
0.0010171522
0.001521053
0.0017461657
0.0015210434
0.0010171479
0.0037326226
0.0036779623
0.0034861503
0.0036779088
0.0037325552
0.0017157063
0.00056179347
0.00033287205
0.00056178687
0.001715662
0.00012378256
1.3438601e-05
5.7834826e-06
1.3438408e-05
0.00012377983
5.5359962e-05
8.1875429e-05
9.5515544e-05
8.1875905e-05
5.53607e-05
0.00085933316
0.0012984858
0.0015020223
0.0012984822
0.00085933484
0.0034977814
0.0036012959
0.0034885822
0.0036012284
0.0034977123
0.0019617248
0.00071112954
0.00043801364
0.00071110642
0.0019616362
0.00017015651
1.9959507e-05
8.6567959e-06
1.9958506e-05
0.00017014629
4.5116298e-05
6.6676791e-05
7.7891556e-05
6.6677696e-05
4.5117418e-05
0.00072879572
0.0011109178
0.0012915487
0.001110921
0.00072880389
0.0032588714
0.0034886597
0.0034400608
0.0034885881
0.0032588116
0.0021909112
0.00087373966
0.00055839433
0.00087369293
0.0021907716
0.00022694291
2.8903885e-05
1.2708841e-05
2.8901189e-05
0.00022691904
3.7004686e-05
5.4701393e-05
6.3903394e-05
5.4702533e-05
3.7005979e-05
0.00062007688
0.00095354314
0.0011122914
0.00095355204
0.00062008968
0.0030211545
0.0033531739
0.0033560418
0.0033531109
0.0030211165
0.0023968652
0.0010456536
0.00069207827
0.0010455846
0.002396694
0.0002944555
4.0817908e-05
1.8276279e-05
4.081297e-05
0.0002944163
3.0515274e-05
4.5198579e-05
5.2773716e-05
4.5199816e-05
3.0516691e-05
0.00052895528
0.00082146085
0.0009605992
0.00082147397
0.00052897227
0.0027883846
0.0032040436
0.0032488482
0.0032039967
0.0027883732
0.0025752134
0.0012228962
0.00083677502
0.0012228059
0.0025750234
0.00037279071
5.63031e-05
2.5757701e-05
5.629493e-05
0.00037273239
2.5282659e-05
3.7597282e-05
4.3877291e-05
3.7598489e-05
2.5284052e-05
0.00045228193
0.00071026218
0.0008324624
0.00071027773
0.00045230096
0.0025629187
0.0030469075
0.0031268945
0.0030468831
0.0025629359
0.0027226459
0.0014008513
0.00098938832
0.001400751
0.0027224695
0.00046143803
7.59026e-05
3.556104e-05
7.5891153e-05
0.00046136491
2.1023433e-05
3.1470272e-05
3.6733495e-05
3.1471366e-05
2.1024723e-05
0.00038731414
0.0006163329
0.00072435792
0.00061634914
0.00038733369
0.0023468296
0.0028854113
0.0029956612
0.002885408
0.0023468715
0.002838135
0.0015756219
0.0011469246
0.0015755208
0.0028379935
0.00055985426
0.0001002066
4.8155195e-05
0.00010019174
0.00055976985
1.7539305e-05
2.6473365e-05
3.0930706e-05
2.6474301e-05
1.754046e-05
0.00033214694
0.00053621489
0.00063230719
0.00053623057
0.00033216638
0.0021420068
0.0027219054
0.0028583856
0.0027219226
0.0021420763
0.0029210562
0.0017427114
0.0013056992
0.0017426243
0.0029209698
0.00066669722
0.00012963073
6.3955954e-05
0.00012961377
0.00066661331
1.4675579e-05
2.2358683e-05
2.6174445e-05
2.2359386e-05
1.467655e-05
0.00028520779
0.00046739951
0.00055345448
0.00046741241
0.00028522562
0.0019497187
0.002558317
0.0027177854
0.0025583465
0.0019498023
0.0029729644
0.001899127
0.0014625674
0.001899063
0.0029729393
0.0007809565
0.00016467032
8.345061e-05
0.00016465266
0.0007808826
1.2309993e-05
1.8951246e-05
2.2234717e-05
1.895179e-05
1.2310733e-05
0.00024514027
0.00040810305
0.000485313
0.00040811431
0.00024515497
0.001769822
0.0023965771
0.0025745096
0.0023966238
0.0017699071
0.0029950102
0.0020410754
0.001613943
0.002041043
0.002995045
0.00090064315
0.00020549566
0.00010697765
0.00020548016
0.00090059337
1.0346706e-05
1.6112554e-05
1.8963686e-05
1.6112917e-05
1.0347257e-05
0.00021085167
0.00035682975
0.00042649308
0.00035683832
0.00021086343
0.00160252
0.002238364
0.0024321075
0.0022384145
0.0016026022
0.0029904983
0.0021667324
0.0017570226
0.0021667312
0.0029905876
0.0010246209
0.00025245301
0.00013499586
0.000252442
0.0010246025
8.7148404e-06
1.3730228e-05
1.6221112e-05
1.373045e-05
8.7151839e-06
0.00018151534
0.00031222411
0.00037526616
0.00031223027
0.00018152341
0.0014479011
0.0020836547
0.0022899931
0.0020837056
0.0014479703
0.0029617637
0.0022736715
0.0018883988
0.0022737029
0.0029618918
0.0011503223
0.00030537692
0.0001676635
0.00030537343
0.001150344
7.3544711e-06
1.1721742e-05
1.3905174e-05
1.1721861e-05
7.3546267e-06
0.00015639227
0.00027332807
0.00033042197
0.00027333194
0.00015639663
0.0013058742
0.0019337667
0.0021492149
0.0019338075
0.0013059233
0.0029129554
0.0023618896
0.0020068927
0.002361943
0.0029130963
0.001276672
0.00036444303
0.00020539018
0.00036444907
0.0012767329
6.2173772e-06
1.0019734e-05
1.1939175e-05
1.0019788e-05
6.2173985e-06
0.00013484586
0.00023927709
0.00029100327
0.0002392794
0.00013484738
0.0011757356
0.0017888265
0.0020101494
0.0017888586
0.0011757664
0.0028460307
0.0024297754
0.0021097971
0.0024298465
0.0028461682
0.0014010071
0.00042915203
0.00024807445
0.00042916815
0.001401102
5.2653958e-06
8.5778482e-06
1.0264557e-05
8.5777992e-06
5.2653131e-06
0.00011636918
0.00020954868
0.00025631413
0.00020954847
0.00011636827
0.0010571994
0.0016505819
0.0018743424
0.0016505988
0.00105721
0.002765207
0.002478938
0.0021973159
0.0024790141
0.002765322
0.0015225569
0.00049947598
0.00029607541
0.0004995031
0.0015226771
4.4659125e-06
7.3511421e-06
8.8339567e-06
7.3510446e-06
4.4657822e-06
0.00010048913
0.0001835091
0.00022573022
0.00018350754
0.00010048694
0.00094926509
0.0015188617
0.001742174
0.0015188678
0.0009492619
0.0026719307
0.0025086944
0.0022673544
0.0025087658
0.0026720168
0.0016385148
0.00057448264
0.00034894035
0.00057451717
0.0016386455
3.7941391e-06
6.3074515e-06
7.6105071e-06
6.3073211e-06
3.7939736e-06
8.6855262e-05
0.00016075089
0.00019880082
0.00016074825
8.6852032e-05
0.00085158211
0.001394788
0.0016151863
0.0013947824
0.00085156582
0.002570237
0.0025218615
0.0023216561
0.0025219209
0.0025702858
0.001748655
0.00065418547
0.00040697539
0.00065422745
0.0017487868
3.2274657e-06
5.4166363e-06
6.5611974e-06
5.4165166e-06
3.2273059e-06
7.510993e-05
0.00014080931
0.0001750372
0.00014080666
7.5106586e-05
0.00076300862
0.0012778928
0.0014932796
0.0012778827
0.00076298656
0.0024608345
0.002517964
0.00235877
0.0025180062
0.0024608502
0.0018501832
0.00073725898
0.00046942002
0.00073730049
0.0018502977
2.7497706e-06
4.6576392e-06
5.6624753e-06
4.657518e-06
2.7496111e-06
6.5013674e-05
0.0001234039
0.0001541451
0.000123401
6.5010155e-05
0.00068323672
0.0011690777
0.0013778543
0.0011690614
0.0006832092
0.0023474754
0.0025005435
0.0023814569
0.0025005686
0.0023474592
0.0019435018
0.00082363905
0.00053653434
0.00082368252
0.0019435999
2.3451458e-06
4.0082621e-06
4.8898806e-06
4.0081584e-06
2.3450221e-06
5.6295165e-05
0.00010815287
0.00013571505
0.00010815025
5.6292323e-05
0.00061111049
0.0010674821
0.0012683318
0.0010674642
0.00061108551
0.0022301801
0.0024690624
0.0023885395
0.0024690693
0.0022301441
0.0020258489
0.00091166725
0.00060725763
0.00091170122
0.0020259087
2.0030213e-06
3.454026e-06
4.2278559e-06
3.4539296e-06
2.0029132e-06
4.8790981e-05
9.4850044e-05
0.0001195478
9.4847504e-05
4.8788416e-05
0.00054638848
0.00097374438
0.0011659282
0.00097372445
0.00054636386
0.0021123732
0.0024274184
0.0023834764
0.0024274116
0.002112323
0.0020984013
0.0010013563
0.00068166459
0.0010013878
0.0020984417
1.7118921e-06
2.9781945e-06
3.6571285e-06
2.9781276e-06
1.7118193e-06
4.2290211e-05
8.3176784e-05
0.00010527784
8.3174937e-05
4.2288416e-05
0.00048792971
0.00088671425
0.001069567
0.0008866976
0.00048791073
0.001993354
0.0023747521
0.0023651235
0.0023747335
0.0019933006
0.0021585785
0.0010909003
0.0007586131
0.0010909163
0.0021585781
1.4650842e-06
2.5718071e-06
3.1678287e-06
2.5717499e-06
1.4650223e-06
3.6688226e-05
7.3008205e-05
9.2781782e-05
7.3006591e-05
3.6686675e-05
0.00043562232
0.00080703661
0.00098034671
0.00080702096
0.00043560515
0.0018763259
0.0023150931
0.0023372854
0.0023150707
0.0018762719
0.0022081451
0.0011801907
0.00083795958
0.0011802056
0.0022081378
1.2541025e-06
2.2217439e-06
2.7447613e-06
2.2217095e-06
1.2540668e-06
3.1818932e-05
6.4069952e-05
8.1740209e-05
6.4068933e-05
3.1818004e-05
0.00038838252
0.000733334
0.00089687276
0.00073332267
0.00038837112
0.0017599896
0.0022471384
0.002298581
0.0022471117
0.0017599425
0.0022447413
0.0012674987
0.00091859733
0.0012674961
0.0022447023
1.0749582e-06
1.9225004e-06
2.3819748e-06
1.9224707e-06
1.0749267e-06
2.7621538e-05
5.6289774e-05
7.2087403e-05
5.6288897e-05
2.7620724e-05
0.00034624371
0.00066625138
0.00082019359
0.0006662415
0.00034623375
0.0016474388
0.0021749485
0.0022529715
0.0021749251
0.0016473979
0.0022706164
0.0013525606
0.0010000056
0.0013525617
0.0022705872
9.2110645e-07
1.6635182e-06
2.0670209e-06
1.6635037e-06
9.2109174e-07
2.3959976e-05
4.9427902e-05
6.3536473e-05
4.9427452e-05
2.3959581e-05
0.0003081622
0.00060426159
0.0007486538
0.00060425556
0.00030815671
0.0015368152
0.002096697
0.0021987078
0.0020966743
0.0015367843
0.002283653
0.0014339939
0.0010813893
0.0014339795
0.0022836038
7.9039242e-07
1.4419893e-06
1.7969165e-06
1.4419751e-06
7.9037654e-07
2.0805261e-05
4.3459662e-05
5.6072152e-05
4.3459241e-05
2.0804855e-05
0.00027430732
0.00054811499
0.00068335547
0.00054810987
0.00027430221
0.0014311977
0.0020165086
0.002139851
0.0020164926
0.0014311737
0.0022865096
0.001511233
0.0011616898
0.0015112288
0.0022864833
6.7762388e-07
1.2492806e-06
1.5612978e-06
1.2492752e-06
6.7761763e-07
1.8043254e-05
3.8174618e-05
4.9436268e-05
3.8174456e-05
1.8043095e-05
0.00024367692
0.00049620489
0.00062247274
0.00049620245
0.00024367466
0.0013282322
0.0019320086
0.0020741941
0.0019319953
0.0013282166
0.0022772111
0.0015834395
0.0012406819
0.0015834236
0.0022771734
5.818522e-07
1.0844386e-06
1.3592883e-06
1.0844308e-06
5.8184218e-07
1.5666852e-05
3.3583377e-05
4.3653032e-05
3.3583162e-05
1.5666609e-05
0.00021655063
0.00044940316
0.00056720829
0.00044940078
0.00021654784
0.0012310536
0.001847472
0.0020059528
0.0018474653
0.0012310421
0.0022588116
0.0016496894
0.0013166239
0.0016496891
0.002258802
4.9884856e-07
9.4023569e-07
1.1820889e-06
9.4023254e-07
4.9884377e-07
1.357834e-05
2.949861e-05
3.8488175e-05
2.9498532e-05
1.357823e-05
0.0001919674
0.00040605748
0.00051562053
0.00040605659
0.00019196617
0.0011368679
0.0017599551
0.0019323987
0.0017599501
0.0011368611
0.0022293189
0.0017098211
0.0013900906
0.0017098123
0.0022293008
4.2845519e-07
8.169853e-07
1.0302953e-06
8.1697892e-07
4.2844628e-07
1.1785525e-05
2.595672e-05
3.399591e-05
2.5956556e-05
1.1785313e-05
0.00017029274
0.00036716192
0.00046903605
0.00036716052
0.00017029054
0.001048912
0.0016739808
0.0018580089
0.0016739806
0.0010489061
0.0021922204
0.0017625497
0.0014585689
0.0017625588
0.0021922284
3.671602e-07
7.0852707e-07
8.9632627e-07
7.08523e-07
3.6715419e-07
1.0203607e-05
2.2789374e-05
2.9962742e-05
2.2789274e-05
1.0203465e-05
0.00015060854
0.00033104556
0.00042544624
0.00033104476
0.00015060707
0.00096401078
0.0015860185
0.0017794759
0.001586018
0.00096400611
0.0021453018
0.001808418
0.0015235868
0.0018084202
0.0021453003
3.1530852e-07
6.1600792e-07
7.8177638e-07
6.1600101e-07
3.1529928e-07
8.8501473e-06
2.0050912e-05
2.6464779e-05
2.0050729e-05
8.8499208e-06
0.00013334258
0.00029881045
0.0003863028
0.0002988089
0.00013334013
0.00088552688
0.001500926
0.001701655
0.0015009278
0.00088552087
0.0020925648
0.0018458537
0.0015818463
0.0018458723
0.0020925827
2.6993794e-07
5.3409214e-07
6.8002125e-07
5.3408646e-07
2.6993056e-07
7.6507991e-06
1.7588707e-05
2.3306225e-05
1.7588552e-05
7.6506144e-06
0.00011762117
0.00026878334
0.00034955715
0.0002687819
0.00011761906
0.00080996383
0.0014145646
0.0016206004
0.0014145643
0.00080995691
0.0020313492
0.0018760165
0.001635878
0.0018760286
0.0020313553
2.3169715e-07
4.6444197e-07
5.9328627e-07
4.6443442e-07
2.316878e-07
6.6291142e-06
1.546864e-05
2.0577786e-05
1.5468426e-05
6.6288745e-06
0.0001039132
0.00024215065
0.00031676921
0.00024214854
0.00010391037
0.00074081479
0.001332188
0.0015416512
0.001332188
0.00074080579
0.0019662848
0.0018972076
0.0016816876
0.0018972318
0.0019663024
1.9806298e-07
4.0237567e-07
5.1571353e-07
4.0236898e-07
1.9805505e-07
5.7195759e-06
1.3551327e-05
1.8098897e-05
1.355113e-05
5.7193671e-06
9.1392139e-05
0.00021724787
0.00028586958
0.00021724569
9.1389506e-05
0.0006743253
0.0012490286
0.001460159
0.0012490258
0.00067431465
0.0018940403
0.0019109961
0.0017227257
0.0019110137
0.0018940449
1.6985153e-07
3.498472e-07
4.4989303e-07
3.4983961e-07
1.6984275e-07
4.949005e-06
1.1909359e-05
1.5969085e-05
1.1909131e-05
4.9487707e-06
8.0549662e-05
0.0001953216
0.00025850321
0.00019531899
8.0546638e-05
0.00061410695
0.0011707788
0.0013820317
0.0011707754
0.00061409456
0.001820002
0.0019158033
0.0017545013
0.0019158277
0.0018200115
1.4490132e-07
3.0271798e-07
3.9060324e-07
3.0271115e-07
1.4489375e-07
4.2595653e-06
1.0415109e-05
1.4021346e-05
1.0414897e-05
4.2593579e-06
7.0609263e-05
0.00017472894
0.00023259663
0.00017472627
7.0606425e-05
0.00055621374
0.0010920399
0.0013018615
0.0010920337
0.00055619996
0.0017399626
0.0019132922
0.001781166
0.0019133102
0.0017399599
1.2410284e-07
2.6307868e-07
3.4060765e-07
2.6307169e-07
1.240952e-07
3.6793926e-06
9.1442955e-06
1.235951e-05
9.144075e-06
3.6791813e-06
6.2069963e-05
0.00015675343
0.00020985364
0.00015675058
6.2067016e-05
0.00050434998
0.0010189611
0.0012261816
0.001018954
0.0005043353
0.0016601836
0.0019023195
0.0017980357
0.0019023393
0.0016601816
1.0559858e-07
2.2724956e-07
2.952251e-07
2.272433e-07
1.0559198e-07
3.1574344e-06
7.9798178e-06
1.0828844e-05
7.9796146e-06
3.1572478e-06
5.420723e-05
0.00013978318
0.00018821051
0.00013978036
5.4204496e-05
0.00045444246
0.00094551975
0.0011487831
0.00094551059
0.00045442708
0.0015754132
0.0018842482
0.0018096187
0.0018842622
0.0015754012
9.0291056e-08
1.9735127e-07
2.5726052e-07
1.9734528e-07
9.0284812e-08
2.7217668e-06
6.9978833e-06
9.5341233e-06
6.9976869e-06
2.7215887e-06
4.7514845e-05
0.00012511744
0.00016940485
0.00012511465
4.7512192e-05
0.00041025279
0.00087831854
0.0010768539
0.00087830879
0.00041023738
0.0014928796
0.0018587278
0.0018114242
0.0018587402
0.0014928662
7.6582643e-08
1.7010305e-07
2.2250566e-07
1.7009776e-07
7.6577287e-08
2.3274063e-06
6.0910873e-06
8.332052e-06
6.0909093e-06
2.3272505e-06
4.1321614e-05
0.00011118535
0.00015139714
0.00011118268
4.1319195e-05
0.00036764404
0.00081074209
0.001003371
0.00081073112
0.00036762868
0.0014061698
0.0018263848
0.0018078747
0.0018263924
0.0014061495
6.5347393e-08
1.4758486e-07
1.9371804e-07
1.4758004e-07
6.5342556e-08
2.0014322e-06
5.3342705e-06
7.3259233e-06
5.3341066e-06
2.0012904e-06
3.6106198e-05
9.9283822e-05
0.00013593595
9.92813e-05
3.6103961e-05
0.00033039445
0.00074982484
0.00093617758
0.00074981373
0.00033037974
0.0013235314
0.0017880355
0.0017951154
0.0017880398
0.0013235095
5.5212376e-08
1.2686865e-07
1.6710828e-07
1.2686444e-07
5.5208266e-08
1.7043283e-06
4.6290619e-06
6.3831507e-06
4.628916e-06
1.7042058e-06
3.1251368e-05
8.7892071e-05
0.00012101834
8.7889722e-05
3.1249366e-05
0.00029436375
0.00068840842
0.00086744723
0.00068839691
0.00029434965
0.0012373303
0.0017431225
0.001776976
0.0017431231
0.0012373045
4.6997932e-08
1.0994823e-07
1.4533052e-07
1.0994453e-07
4.6994347e-08
1.4615624e-06
4.0476619e-06
5.6039218e-06
4.0475321e-06
1.4614548e-06
2.7213157e-05
7.8289676e-05
0.00010838564
7.8287534e-05
2.7211369e-05
0.00026330404
0.00063392365
0.00080566761
0.00063391242
0.00026329099
0.0011568453
0.0016940045
0.0017507224
0.0016940016
0.0011568186
3.9526958e-08
9.4211407e-08
1.2497375e-07
9.4208229e-08
3.9523947e-08
1.238563e-06
3.5001914e-06
4.8658554e-06
3.5000781e-06
1.2384712e-06
2.3428238e-05
6.9014152e-05
9.6084225e-05
6.9012211e-05
2.3426669e-05
0.00023312781
0.00057873489
0.00074224617
0.00057872389
0.00023311571
0.0010732154
0.0016385011
0.0017190344
0.0016384957
0.0010731874
3.3551684e-08
8.1537681e-08
1.0855287e-07
8.1534948e-08
3.3549127e-08
1.0588148e-06
3.0553528e-06
4.2648918e-06
3.0552544e-06
1.0587363e-06
2.0324664e-05
6.1315354e-05
8.583201e-05
6.1313626e-05
2.0323298e-05
0.00020751974
0.00053062293
0.00068628363
0.0005306125
0.00020750882
0.00099672653
0.0015808845
0.0016808201
0.0015808763
0.00099669868
2.8066154e-08
6.9599163e-08
9.2999902e-08
6.9596859e-08
2.8064033e-08
8.9221331e-07
2.6312515e-06
3.6883508e-06
2.6311672e-06
8.9214736e-07
1.7392125e-05
5.3795668e-05
7.5735198e-05
5.379414e-05
1.7390948e-05
0.00018249396
0.00048154854
0.00062847477
0.00048153873
0.00018248412
0.00091732698
0.0015169243
0.0016370102
0.0015169146
0.0009172996
2.37478e-08
6.0145347e-08
8.0669954e-08
6.0143398e-08
2.3746037e-08
7.6007333e-07
2.2925595e-06
3.2271921e-06
2.2924875e-06
7.6001806e-07
1.5027265e-05
4.7665493e-05
6.7475186e-05
4.7664155e-05
1.5026261e-05
0.00016163113
0.00043959137
0.00057849461
0.00043958228
0.00016162242
0.00084626193
0.0014531782
0.0015887239
0.0014531667
0.0008462355
1.9740004e-08
5.1104042e-08
6.8806485e-08
5.1102428e-08
1.9738561e-08
6.3630424e-07
1.9648415e-06
2.7779216e-06
1.964781e-06
6.3625849e-07
1.2771004e-05
4.1596363e-05
5.9226278e-05
4.1595207e-05
1.2770154e-05
0.00014108615
0.00039638043
0.00052638627
0.00039637214
0.00014107849
0.00077234824
0.0013829402
0.001534491
0.0013829281
0.00077232335
1.6644023e-08
4.4088976e-08
5.9596628e-08
4.4087627e-08
1.6642843e-08
5.3999718e-07
1.7084948e-06
2.4261548e-06
1.7084437e-06
5.3995947e-07
1.0986779e-05
3.6752764e-05
5.2624218e-05
3.6751763e-05
1.0986066e-05
0.00012430564
0.00036024922
0.00048236448
0.00036024166
0.00012429898
0.00070773396
0.0013154505
0.001478285
0.0013154377
0.00070771058
1.3733753e-08
3.7256281e-08
5.0564337e-08
3.7255185e-08
1.3732802e-08
4.4866746e-07
1.4559631e-06
2.0769677e-06
1.455921e-06
4.4863675e-07
9.2646717e-06
3.1876761e-05
4.5915801e-05
3.1875914e-05
9.2640795e-06
0.00010761957
0.00032255344
0.0004358715
0.0003225467
0.00010761384
0.00064019924
0.0012410647
0.0014154933
0.0012410517
0.00064017788
1.1537034e-08
3.2085927e-08
4.3730433e-08
3.2085016e-08
1.1536266e-08
3.7924202e-07
1.2633707e-06
1.8105946e-06
1.2633353e-06
3.79217e-07
7.9347424e-06
2.8084021e-05
4.0686589e-05
2.8083294e-05
7.9342513e-06
9.4319164e-05
0.00029185156
0.000397646
0.0002918455
9.4314252e-05
0.00058272937
0.001172173
0.0013537139
0.00117216
0.00058270971
9.4381988e-09
2.6934589e-08
3.6867143e-08
2.6933863e-08
9.4375901e-09
3.1234974e-07
1.0693582e-06
1.5399042e-06
1.0693297e-06
3.1232972e-07
6.6314787e-06
2.4184639e-05
3.5254944e-05
2.4184035e-05
6.631078e-06
8.0912346e-05
0.00025925476
0.0003565475
0.00025924945
8.0908202e-05
0.00052206207
0.0010956347
0.0012842819
0.0010956219
0.00052204448
7.8989332e-09
2.3158026e-08
3.1840261e-08
2.3157424e-08
7.8984459e-09
2.6295267e-07
9.2604691e-07
1.340071e-06
9.2602304e-07
2.629365e-07
5.6540418e-06
2.1247489e-05
3.1158292e-05
2.1246974e-05
5.6537125e-06
7.0540617e-05
0.00023355559
0.00032386966
0.00023355088
7.0537098e-05
0.0004720841
0.0010276275
0.0012194379
0.0010276151
0.00047206819
6.3957945e-09
1.9282923e-08
2.6633762e-08
1.9282455e-08
6.3954173e-09
2.1432485e-07
7.77406e-07
1.1307011e-06
7.7738713e-07
2.143122e-07
4.675999e-06
1.8142276e-05
2.6777253e-05
1.8141856e-05
4.6757363e-06
5.9878248e-05
0.00020558929
0.00028783072
0.00020558523
5.9875341e-05
0.00041840728
0.00095068665
0.0011452007
0.00095067455
0.0004183933
5.334752e-09
1.6559193e-08
2.298109e-08
1.6558808e-08
5.3344535e-09
1.7976925e-07
6.7217276e-07
9.8270196e-07
6.721571e-07
1.7975915e-07
3.97039e-06
1.590096e-05
2.3613799e-05
1.5900605e-05
3.9701766e-06
5.195031e-05
0.00018447393
0.00026041763
0.00018447037
5.1947874e-05
0.00037604665
0.00088581927
0.0010799933
0.00088580787
0.00037603424
4.2645079e-09
1.36467e-08
1.9032419e-08
1.364641e-08
4.264285e-09
1.4464085e-07
5.5844615e-07
8.2088057e-07
5.5843411e-07
1.4463321e-07
3.2415272e-06
1.3434605e-05
2.0087555e-05
1.3434322e-05
3.2413621e-06
4.3540924e-05
0.00016061503
0.00022898976
0.00016061202
4.3538967e-05
0.0003291176
0.00080979391
0.0010024792
0.00080978308
0.00032910695
3.5508516e-09
1.1721557e-08
1.6429531e-08
1.1721324e-08
3.5506791e-09
1.2106993e-07
4.8277196e-07
7.1346426e-07
4.8276216e-07
1.2106396e-07
2.7453664e-06
1.1762347e-05
1.7697739e-05
1.1762112e-05
2.7452348e-06
3.7650898e-05
0.00014372373
0.00020660214
0.00014372115
3.764929e-05
0.00029442052
0.0007504446
0.00093997212
0.00075043458
0.00029441126
2.7887307e-09
9.5232541e-09
1.3420732e-08
9.523088e-09
2.7886098e-09
9.5696672e-08
3.9541395e-07
5.8784375e-07
3.9540676e-07
9.569241e-08
2.2024544e-06
9.7973307e-06
1.484969e-05
9.7971508e-06
2.2023577e-06
3.1025585e-05
0.00012334572
0.0001791613
0.00012334361
3.1024348e-05
0.00025351745
0.00067583363
0.00085992787
0.00067582452
0.00025350979
2.3315367e-09
8.2171876e-09
1.1637975e-08
8.2170595e-09
2.331447e-09
8.0401621e-08
3.4324559e-07
5.1300413e-07
3.4323992e-07
8.0398403e-08
1.8710968e-06
8.6041996e-06
1.3121242e-05
8.6040536e-06
1.8710219e-06
2.6881251e-05
0.0001105001
0.00016177444
0.00011049832
2.6880259e-05
0.00022677704
0.0006250442
0.00080414949
0.00062503592
0.00022677053
1.7743371e-09
6.5172655e-09
9.290185e-09
6.5171857e-09
1.7742831e-09
6.1577911e-08
2.744826e-07
4.1312189e-07
2.7447885e-07
6.1575903e-08
1.4556254e-06
6.999809e-06
1.0765017e-05
6.9997058e-06
1.4555763e-06
2.1518722e-05
9.2670943e-05
0.00013724324
9.2669585e-05
2.1518025e-05
0.00019022557
0.00055047698
0.00072028958
0.00055046996
0.00019022056
1.5286743e-09
5.7487703e-09
8.2253409e-09
5.7487122e-09
1.528636e-09
5.3293911e-08
2.434207e-07
3.6783855e-07
2.4341782e-07
5.3292435e-08
1.2716217e-06
6.26856e-06
9.6856677e-06
6.2684762e-06
1.2715838e-06
1.9098322e-05
8.4345609e-05
0.00012568749
8.4344447e-05
1.9097758e-05
0.00017308649
0.00051386336
0.00067833875
0.000513857
0.00017308217
1.044315e-09
4.1795799e-09
6.0370375e-09
4.1795645e-09
1.0443048e-09
3.6674977e-08
1.7875244e-07
2.7288464e-07
1.7875132e-07
3.6674488e-08
8.9317781e-07
4.7046157e-06
7.3567595e-06
4.7045726e-06
8.9316209e-07
1.3943992e-05
6.5810603e-05
9.9630497e-05
6.5809872e-05
1.3943703e-05
0.00013461557
0.00042675476
0.00057613426
0.00042675
0.00013461284
0.0030750631
0.00083494285
0.00049851302
0.0008349448
0.0030750687
4.1397283e-07
1.6904913e-07
1.2922792e-07
1.6904926e-07
4.1397311e-07
3.7544285e-08
3.074094e-08
2.9307812e-08
3.0740927e-08
3.7544244e-08
2.5867052e-08
2.5080633e-08
2.4940792e-08
2.5080632e-08
2.5867047e-08
2.4705584e-08
2.4607631e-08
2.4596828e-08
2.4607631e-08
2.4705583e-08
0.036386652
0.035671575
0.034600471
0.035671549
0.036386626
0.00036857122
5.4453408e-05
2.7067314e-05
5.4452005e-05
0.00036856106
7.2332086e-07
1.6791734e-07
1.1518362e-07
1.6790116e-07
7.2323024e-07
4.9432572e-08
3.3102858e-08
3.0679177e-08
3.3102415e-08
4.9431142e-08
2.7693983e-08
2.5478931e-08
2.5213916e-08
2.547889e-08
2.7693921e-08
0.010715462
0.01216896
0.013118462
0.012168983
0.010715494
0.0037475031
0.0010179861
0.00056739484
0.0010179918
0.0037475214
1.2815467e-05
1.7181557e-06
9.1462047e-07
1.7181907e-06
1.2815596e-05
1.7218642e-07
6.1568434e-08
4.9621235e-08
6.1571891e-08
1.7219392e-07
3.6797172e-08
2.7936185e-08
2.6962399e-08
2.7936361e-08
3.6802327e-08
0.005155048
0.0058997388
0.0060385735
0.005899733
0.0051550264
0.008057661
0.0041006171
0.0028256153
0.0041006712
0.0080577633
0.00010739974
1.3129042e-05
6.2388929e-06
1.3129556e-05
0.00010740547
7.3010386e-07
1.4755406e-07
1.0095531e-07
1.4755642e-07
7.3013848e-07
6.0645386e-08
3.3559802e-08
3.0833169e-08
3.3559103e-08
6.0646574e-08
0.0028002005
0.0037468085
0.0040351538
0.0037467956
0.0028001819
0.0084723921
0.006787277
0.0056690554
0.0067872803
0.0084723702
0.00042197671
6.4325286e-05
3.0992775e-05
6.4326088e-05
0.00042198181
2.9785636e-06
4.068817e-07
2.3930336e-07
4.0687611e-07
2.9785234e-06
1.171681e-07
4.4948085e-08
3.828826e-08
4.4946649e-08
1.1716134e-07
0.0016070343
0.002298211
0.0026083911
0.0022982023
0.0016070242
0.0071367199
0.0071194189
0.0067909819
0.0071194108
0.0071366952
0.0010115074
0.00020315071
0.00010470932
0.0002031533
0.001011518
1.0138479e-05
1.1253696e-06
5.910228e-07
1.125378e-06
1.0138588e-05
2.4740531e-07
6.6026388e-08