/*--------------------------------*- C++ -*----------------------------------*\
| =========                 |                                                 |
| \\      /  F ield         | OpenFOAM: The Open Source CFD Toolbox           |
|  \\    /   O peration     | Version:  2.3.x                                 |
|   \\  /    A nd           | Web:      www.OpenFOAM.org                      |
|    \\/     M anipulation  |                                                 |
\*---------------------------------------------------------------------------*/
FoamFile
{
    version     2.0;
    format      ascii;
    class       surfaceScalarField;
    location    "0.024";
    object      phi;
}
// * * * * * * * * * * * * * * * * * * * * * * * * * * * * * * * * * * * * * //

dimensions      [1 0 -1 0 0 0 0];

internalField   nonuniform List<scalar> 
29075
(
2.919526e-09
1.3645399e-07
1.3369096e-07
-5.6404679e-15
1.3987783e-09
1.3870809e-07
1.7473006e-07
-1.3987535e-09
1.3782275e-07
1.9100139e-07
-2.9195004e-09
1.3870805e-07
1.7473011e-07
1.3645395e-07
1.3369102e-07
7.8208354e-15
5.5467567e-09
1.3417468e-07
2.3345655e-07
1.4743462e-14
2.9459696e-09
1.2767491e-07
2.8824145e-07
-2.9459757e-09
1.2347377e-07
3.0846323e-07
-5.5467533e-09
1.2767483e-07
2.8824146e-07
1.3417455e-07
2.3345662e-07
1.9598519e-14
5.4248975e-09
9.2464483e-08
2.3666963e-07
4.8516358e-14
2.9072799e-09
8.3680303e-08
2.8381077e-07
-2.9073308e-09
7.9871453e-08
2.9983599e-07
-5.4249302e-09
8.3680483e-08
2.838105e-07
9.2464666e-08
2.3666931e-07
2.306549e-14
3.8846387e-09
5.493861e-08
1.9768641e-07
4.4686288e-14
2.2107163e-09
4.748344e-08
2.3786092e-07
-2.2107307e-09
4.5593377e-08
2.5131587e-07
-3.8846406e-09
4.7483517e-08
2.3786101e-07
5.4938705e-08
1.9768652e-07
2.4090629e-14
3.0670794e-09
1.4977856e-07
3.955051e-14
2.9799217e-08
2.0168039e-09
1.8754367e-07
2.3672022e-08
-2.0167877e-09
2.0035891e-07
2.4081945e-08
-3.0670503e-09
1.8754372e-07
2.3672031e-08
1.4977867e-07
2.706056e-14
2.9799247e-08
-5.7673406e-10
5.1132261e-08
8.3135474e-08
-3.9669616e-14
-3.5371375e-10
6.1993781e-08
1.1251326e-07
3.5382397e-10
6.5280815e-08
1.2501303e-07
5.7681275e-10
6.1993893e-08
1.1251322e-07
5.1132411e-08
8.3135416e-08
6.9948267e-15
1.5561416e-09
9.7235399e-08
1.8579732e-07
-5.0782685e-14
1.2552909e-09
1.0371607e-07
2.4682001e-07
-1.2551856e-09
1.0541677e-07
2.7083775e-07
-1.5560476e-09
1.0371618e-07
2.4682004e-07
9.7235652e-08
1.8579731e-07
1.9556976e-14
3.3588968e-09
9.4751461e-08
2.3579472e-07
-5.2470003e-14
2.338228e-09
9.1098556e-08
2.9744895e-07
-2.3380674e-09
9.0535851e-08
3.193932e-07
-3.3587594e-09
9.1098478e-08
2.9744889e-07
9.475152e-08
2.3579465e-07
3.1003186e-14
4.0622433e-09
6.8304285e-08
2.2007143e-07
-8.004469e-14
2.687709e-09
6.0980773e-08
2.6935324e-07
-2.6874847e-09
6.095829e-08
2.8626862e-07
-4.0620326e-09
6.098061e-08
2.6935343e-07
6.8304302e-08
2.2007167e-07
3.3018056e-14
3.7550948e-09
1.7188708e-07
-1.4781258e-13
4.2440815e-08
2.6687646e-09
2.160106e-07
3.3600172e-08
-2.668499e-09
2.3123267e-07
3.5421801e-08
-3.7547895e-09
2.1601054e-07
3.3600082e-08
1.7188738e-07
3.0883532e-14
4.2440765e-08
-6.3476862e-10
1.8406182e-08
6.536411e-08
-4.878958e-14
-4.5956718e-10
2.4613185e-08
8.7724875e-08
4.5970493e-10
2.6811944e-08
9.7281818e-08
6.3486354e-10
2.461334e-08
8.7724726e-08
1.8406389e-08
6.5363888e-08
3.1517933e-15
-1.0566722e-09
3.9906006e-08
1.6535428e-07
-1.1266557e-13
-2.7273099e-10
5.069328e-08
2.1995597e-07
2.7313873e-10
5.4104917e-08
2.4299891e-07
1.0569739e-09
5.0693548e-08
2.19956e-07
3.9906492e-08
1.6535417e-07
1.2974453e-14
5.5425635e-10
5.1788015e-08
2.2335865e-07
-1.8847389e-13
6.2903765e-10
5.6452637e-08
2.9161481e-07
-6.2857064e-10
5.7932113e-08
3.1682361e-07
-5.5396258e-10
5.6452475e-08
2.9161536e-07
5.178798e-08
2.2335918e-07
2.4143353e-14
1.8619373e-09
4.3280924e-08
2.2671679e-07
-2.1162753e-13
1.3117982e-09
4.1313028e-08
2.8504299e-07
-1.3113132e-09
4.2339301e-08
3.0448455e-07
-1.861572e-09
4.1312817e-08
2.8504334e-07
4.3280724e-08
2.2671732e-07
3.3139689e-14
2.1697837e-09
1.844627e-07
-2.0859722e-13
2.8535732e-08
1.5165338e-09
2.3350283e-07
2.4474045e-08
-1.5160934e-09
2.5038004e-07
2.6224551e-08
-2.1694506e-09
2.3350274e-07
2.4473981e-08
1.8446307e-07
4.8494024e-14
2.853554e-08
-4.0256189e-10
9.6929104e-09
5.6073737e-08
2.3862332e-14
-2.1494909e-10
1.3289332e-08
7.424793e-08
2.1490416e-10
1.5031797e-08
8.1820168e-08
4.0253124e-10
1.328921e-08
7.4247889e-08
9.6927829e-09
5.6073637e-08
-8.1081772e-16
-5.9799994e-10
2.4636651e-08
1.510086e-07
-6.1275818e-14
-4.0291618e-10
3.1387301e-08
2.0166292e-07
4.0305324e-10
3.4343532e-08
2.2288121e-07
5.9812545e-10
3.1387148e-08
2.0166299e-07
2.4636473e-08
1.510086e-07
1.0965248e-14
4.0441009e-10
3.4427167e-08
2.1316383e-07
-1.097147e-13
2.1167427e-10
3.9651701e-08
2.8354315e-07
-2.1142999e-10
4.1383076e-08
3.1020717e-07
-4.0422691e-10
3.9651588e-08
2.8354371e-07
3.4426951e-08
2.1316445e-07
2.5250541e-14
1.552633e-09
3.1595335e-08
2.2799609e-07
-9.4681948e-14
9.440734e-10
3.1106428e-08
2.9419682e-07
-9.4381994e-10
3.1457888e-08
3.1629763e-07
-1.5524587e-09
3.1106423e-08
2.9419715e-07
3.1595092e-08
2.2799668e-07
4.1810478e-14
1.953825e-09
1.9400552e-07
-3.9419334e-14
2.0098726e-08
1.0160255e-09
2.4764219e-07
1.7904869e-08
-1.0158623e-09
2.6543832e-07
1.84315e-08
-1.9537446e-09
2.4764215e-07
1.7904887e-08
1.9400566e-07
6.4123199e-14
2.0098696e-08
3.1739902e-11
3.6382823e-09
5.2403636e-08
7.8811998e-14
1.3713044e-11
5.8124157e-09
6.8453542e-08
-1.3983435e-11
6.9135102e-09
7.4934355e-08
-3.1900706e-11
5.8121977e-09
6.8453609e-08
3.6380421e-09
5.2403706e-08
-1.0820257e-14
-1.026513e-10
1.4303846e-08
1.404456e-07
8.6426999e-14
-1.0884527e-10
1.9724834e-08
1.877567e-07
1.0869323e-10
2.2241529e-08
2.0733565e-07
1.0248377e-10
1.972459e-08
1.8775681e-07
1.4303412e-08
1.4044572e-07
-7.2467772e-15
4.3569224e-10
2.4155308e-08
2.0287663e-07
4.8540481e-14
2.9005556e-10
3.0045996e-08
2.7336762e-07
-2.9015528e-10
3.2326142e-08
3.0070277e-07
-4.3577979e-10
3.0045965e-08
2.7336796e-07
2.4155057e-08
2.0287702e-07
5.6171193e-15
1.5229237e-09
2.5567318e-08
2.250611e-07
5.3767512e-14
8.9051448e-10
2.747897e-08
2.9739625e-07
-8.9062621e-10
2.8090172e-08
3.2231474e-07
-1.523045e-09
2.7479048e-08
2.9739648e-07
2.5567198e-08
2.2506149e-07
1.1122046e-14
2.1119062e-09
1.9950104e-07
9.0622667e-14
1.7959802e-08
1.0479809e-09
2.5924007e-07
1.6945012e-08
-1.0481692e-09
2.7860228e-07
1.7022363e-08
-2.1120929e-09
2.5924009e-07
1.6945036e-08
1.9950101e-07
1.0887093e-14
1.7959737e-08
9.0579166e-11
1.7225972e-09
5.0590397e-08
6.3148252e-14
9.7461726e-11
2.4737184e-09
6.5972941e-08
-9.7624954e-11
3.0683186e-09
7.2061123e-08
-9.0713497e-11
2.4737005e-09
6.5972998e-08
1.7225393e-09
5.0590468e-08
-1.4992605e-14
5.7354862e-11
8.2777674e-09
1.3383296e-07
1.2212819e-13
2.9971907e-12
1.1812807e-08
1.7847197e-07
-3.2448309e-12
1.3713506e-08
1.9669671e-07
-5.7538342e-11
1.1812777e-08
1.7847202e-07
8.2776899e-09
1.3383305e-07
-2.1406214e-14
3.113379e-10
1.6419731e-08
1.9442321e-07
1.1496711e-13
1.6560044e-10
2.1693493e-08
2.6363268e-07
-1.6582049e-10
2.3860477e-08
2.9088722e-07
-3.1150714e-10
2.169363e-08
2.636328e-07
1.6419824e-08
1.9442339e-07
-1.4037657e-14
1.1793502e-09
1.9718435e-08
2.2058294e-07
1.0472798e-13
6.8543631e-10
2.2952767e-08
2.966309e-07
-6.8558932e-10
2.3890174e-08
3.2365607e-07
-1.1795041e-09
2.2952996e-08
2.9663103e-07
1.9718654e-08
2.2058316e-07
-9.4624494e-15
1.8427523e-09
2.0194949e-07
1.0721653e-13
1.5427127e-08
9.5157106e-10
2.6740828e-07
1.5675742e-08
-9.5167812e-10
2.8874155e-07
1.5654147e-08
-1.8428893e-09
2.674084e-07
1.5675898e-08
2.019495e-07
-1.2054197e-14
1.5427295e-08
3.2003492e-11
9.9493589e-10
4.9563418e-08
4.0282104e-14
6.4645372e-11
1.2454323e-09
6.4694868e-08
-6.4758239e-11
1.5234549e-09
7.0667072e-08
-3.2087857e-11
1.2454341e-09
6.4694893e-08
9.9491806e-10
4.956348e-08
-1.7384181e-14
6.7284268e-11
5.047843e-09
1.2971265e-07
1.1484801e-13
4.0880053e-11
7.2663608e-09
1.7247744e-07
-4.1226308e-11
8.5416364e-09
1.8976063e-07
-6.7481656e-11
7.2662801e-09
1.7247743e-07
5.0477967e-09
1.2971272e-07
-3.0781693e-14
2.2303823e-10
1.1070547e-08
1.8817733e-07
1.364481e-13
7.6212143e-11
1.5398411e-08
2.5564745e-07
-7.6518692e-11
1.7145009e-08
2.8243658e-07
-2.2325628e-10
1.5398419e-08
2.556474e-07
1.1070581e-08
1.8817738e-07
-2.7171036e-14
8.740085e-10
1.4567372e-08
2.1621197e-07
1.3364653e-13
4.5034526e-10
1.8212293e-08
2.9424068e-07
-4.5057165e-10
1.907518e-08
3.2262682e-07
-8.7421485e-10
1.8212431e-08
2.9424066e-07
1.4567547e-08
2.16212e-07
-2.0980957e-14
1.4846697e-09
2.0275379e-07
1.3730935e-13
1.2278268e-08
7.4837657e-10
2.729223e-07
1.3434571e-08
-7.485524e-10
2.9598509e-07
1.3328577e-08
-1.4848544e-09
2.7292245e-07
1.3434681e-08
2.0275377e-07
-2.0050552e-14
1.2278439e-08
-7.1569896e-12
6.5164003e-10
4.8918917e-08
1.7956337e-14
2.7782227e-11
7.7468376e-10
6.3885245e-08
-2.7868406e-11
9.3238924e-10
6.9790334e-08
7.0898747e-12
7.746769e-10
6.3885259e-08
6.5162716e-10
4.8918965e-08
-2.1847212e-14
4.9926007e-11
3.2811279e-09
1.2703315e-07
8.4421222e-14
4.2070886e-11
4.7749349e-09
1.6848505e-07
-4.2357819e-11
5.6778012e-09
1.8509965e-07
-5.0091706e-11
4.7748497e-09
1.68485e-07
3.2811212e-09
1.2703318e-07
-4.4556938e-14
1.8556567e-10
7.6960575e-09
1.8357672e-07
1.2266391e-13
4.9941787e-11
1.1183592e-08
2.4937442e-07
-5.0303594e-11
1.261958e-08
2.7559505e-07
-1.8579407e-10
1.1183536e-08
2.493742e-07
7.6961197e-09
1.8357664e-07
-4.853151e-14
6.9288824e-10
1.0855216e-08
2.123598e-07
1.2264175e-13
3.1477606e-10
1.4494905e-08
2.9130748e-07
-3.1507034e-10
1.5264467e-08
3.2061178e-07
-6.9311417e-10
1.4494979e-08
2.9130727e-07
1.085539e-08
2.1235967e-07
-4.713642e-14
1.2268198e-09
2.0264885e-07
1.2220284e-13
9.7332165e-09
5.9375653e-10
2.7668219e-07
1.136808e-08
-5.9400747e-10
3.0127469e-07
1.116263e-08
-1.2270234e-09
2.7668232e-07
1.1368133e-08
2.0264883e-07
-5.3565169e-14
9.7333557e-09
-1.9098966e-11
4.7489636e-10
4.8463122e-08
-2.1011219e-15
1.2383661e-11
5.7849952e-10
6.3275263e-08
-1.2425687e-11
6.9379545e-10
6.9121348e-08
1.9050411e-11
5.7849568e-10
6.3275287e-08
4.7487241e-10
4.8463165e-08
-2.1734721e-14
3.7157369e-11
2.3061322e-09
1.2516472e-07
4.3433381e-14
3.7719709e-11
3.3848288e-09
1.6567816e-07
-3.7962686e-11
4.0423437e-09
1.8182678e-07
-3.7284297e-11
3.3847202e-09
1.6567809e-07
2.3060992e-09
1.2516472e-07
-4.981426e-14
1.6545608e-10
5.6373074e-09
1.8008e-07
8.7747056e-14
4.8287659e-11
8.5109426e-09
2.4436547e-07
-4.8624014e-11
9.7016105e-09
2.700327e-07
-1.6566564e-10
8.5108046e-09
2.4436516e-07
5.6372905e-09
1.8007984e-07
-6.0232707e-14
5.831747e-10
8.4292421e-09
2.089846e-07
9.5944482e-14
2.4191378e-10
1.1968248e-08
2.8819143e-07
-2.4223037e-10
1.2687561e-08
3.1810997e-07
-5.8339799e-10
1.1968219e-08
2.8819102e-07
8.4292914e-09
2.0898433e-07
-6.313868e-14
1.0412742e-09
2.0200442e-07
9.9381519e-14
8.0323007e-09
5.0269715e-10
2.7918828e-07
1.0000733e-08
-5.0301084e-10
3.0521122e-07
9.756742e-09
-1.0414956e-09
2.7918828e-07
1.0000737e-08
2.0200434e-07
-7.3862517e-14
8.0323644e-09
-2.2573028e-11
3.7936768e-10
4.8106348e-08
-2.0786804e-14
6.6481868e-12
4.4834196e-10
6.27977e-08
-6.662998e-12
5.4064747e-10
6.8594012e-08
2.2562261e-11
4.4832407e-10
6.2797738e-08
3.7933923e-10
4.8106404e-08
-1.6327266e-14
3.1916856e-11
1.7323914e-09
1.2377977e-07
5.0862582e-15
2.7172155e-11
2.5279908e-09
1.6360325e-07
-2.7323263e-11
3.005506e-09
1.7941642e-07
-3.1995042e-11
2.5278778e-09
1.6360321e-07
1.7323186e-09
1.237798e-07
-4.9930491e-14
1.5669489e-10
4.3115101e-09
1.7734414e-07
4.7072321e-14
5.4151691e-11
6.7057217e-09
2.4029029e-07
-5.4445526e-11
7.6955661e-09
2.6545123e-07
-1.5687822e-10
6.7055181e-09
2.4028995e-07
4.3113779e-09
1.7734397e-07
-6.7770816e-14
4.9479273e-10
6.8015933e-09
2.0599966e-07
6.8066597e-14
2.0055847e-10
1.0140371e-08
2.8505102e-07
-2.0092313e-10
1.0870801e-08
3.1533622e-07
-4.9502955e-10
1.0140208e-08
2.8505044e-07
6.8014585e-09
2.059993e-07
-7.5823481e-14
8.9395723e-10
2.0102302e-07
8.9327025e-14
6.8889441e-09
4.4634497e-10
2.8072335e-07
9.0529136e-09
-4.4679444e-10
3.0807884e-07
8.8963134e-09
-8.9424201e-10
2.8072312e-07
9.0528157e-09
2.010228e-07
-8.9421632e-14
6.8888489e-09
-1.892149e-11
2.9632787e-10
4.7828975e-08
-3.3448955e-14
4.4472249e-12
3.6670226e-10
6.240763e-08
-4.4276343e-12
4.376744e-10
6.8165213e-08
1.8950048e-11
3.6668477e-10
6.2407676e-08
2.9632734e-10
4.7829035e-08
-7.4919243e-15
1.9984084e-11
1.3354715e-09
1.2272068e-07
-4.029779e-14
2.049841e-11
1.9941164e-09
1.6197533e-07
-2.0578514e-11
2.3450177e-09
1.7755015e-07
-2.0008821e-11
1.9940119e-09
1.6197532e-07
1.3354221e-09
1.2272073e-07
-3.4779584e-14
1.3371735e-10
3.377989e-09
1.7516791e-07
-2.5508577e-15
5.1409205e-11
5.3977152e-09
2.36969e-07
-5.1608413e-11
6.2196633e-09
2.6167961e-07
-1.3383428e-10
5.3975138e-09
2.3696868e-07
3.3778513e-09
1.7516777e-07
-6.0304813e-14
4.1308589e-10
5.5708111e-09
2.0339373e-07
2.1710056e-14
1.6740707e-10
8.6526144e-09
2.820418e-07
-1.6770246e-10
9.394708e-09
3.1249628e-07
-4.1327149e-10
8.6524069e-09
2.8204111e-07
5.570618e-09
2.0339333e-07
-7.3845523e-14
7.573141e-10
1.9986134e-07
5.0053879e-14
5.9751258e-09
4.0023707e-10
2.8149534e-07
8.2376994e-09
-4.006502e-10
3.1007022e-07
8.204219e-09
-7.575662e-10
2.8149487e-07
8.2375743e-09
1.9986097e-07
-8.579136e-14
5.9749666e-09
-1.2552174e-11
2.2991701e-10
4.7611652e-08
-4.1332082e-14
3.2971006e-12
2.8942799e-10
6.2102353e-08
-3.2417035e-12
3.394042e-10
6.7832348e-08
1.2620253e-11
2.8940003e-10
6.2102414e-08
2.2993141e-10
4.7611722e-08
2.3687239e-15
1.7960752e-11
1.0442504e-09
1.2188845e-07
-5.9596398e-14
1.7287118e-11
1.563176e-09
1.6070225e-07
-1.7274102e-11
1.8188674e-09
1.7610525e-07
-1.7940657e-11
1.5630926e-09
1.6070229e-07
1.0442063e-09
1.2188854e-07
-2.072302e-14
1.1885362e-10
2.6667597e-09
1.7342659e-07
-4.2575223e-14
4.8991831e-11
4.3483962e-09
2.3425364e-07
-4.909701e-11
5.0247169e-09
2.5857185e-07
-1.1890669e-10
4.3482004e-09
2.3425338e-07
2.6666019e-09
1.7342651e-07
-4.5755227e-14
3.483429e-10
4.5636398e-09
2.0114852e-07
-1.5584603e-14
1.4188728e-10
7.3436066e-09
2.7925304e-07
-1.4210993e-10
8.0677339e-09
3.0973726e-07
-3.4848093e-10
7.343354e-09
2.7925233e-07
4.5633835e-09
2.0114814e-07
-6.4114124e-14
6.3636053e-10
1.9862714e-07
2.65782e-14
5.1614491e-09
3.5255804e-10
2.8168981e-07
7.4329455e-09
-3.5293804e-10
3.1134107e-07
7.5023842e-09
-6.3659109e-10
2.8168912e-07
7.4327584e-09
1.9862663e-07
-7.6326366e-14
5.1612098e-09
-8.7849798e-12
1.7233445e-10
4.7448154e-08
-5.1919873e-14
1.9558452e-12
2.1864633e-10
6.1872966e-08
-1.8491943e-12
2.5263593e-10
6.7583517e-08
8.9100321e-12
2.1863032e-10
6.1873025e-08
1.7240099e-10
4.7448214e-08
1.6631562e-14
1.7975204e-11
8.0018333e-10
1.2124271e-07
-8.6985627e-14
1.4427465e-11
1.2022703e-09
1.5972218e-07
-1.4272463e-11
1.3947836e-09
1.7499181e-07
-1.787909e-11
1.2022843e-09
1.5972224e-07
8.0023737e-10
1.2124282e-07
3.1575618e-15
1.0818728e-10
2.095979e-09
1.7202269e-07
-8.3309961e-14
4.636362e-11
3.4795033e-09
2.3203823e-07
-4.6317179e-11
4.0390048e-09
2.5602031e-07
-1.0813268e-10
3.4794338e-09
2.3203805e-07
2.095965e-09
1.7202267e-07
-2.0004842e-14
3.0071803e-10
3.7228969e-09
1.9922096e-07
-7.349363e-14
1.2144778e-10
6.1918998e-09
2.7671992e-07
-1.2147868e-10
6.8754149e-09
3.0714378e-07
-3.007304e-10
6.1917483e-09
2.7671927e-07
3.7227792e-09
1.9922063e-07
-3.8696216e-14
5.3788804e-10
1.9738516e-07
-4.5357727e-14
4.4270405e-09
3.0715564e-10
2.8145905e-07
6.6533918e-09
-3.0727914e-10
3.1201165e-07
6.8192667e-09
-5.3796068e-10
2.8145829e-07
6.6532619e-09
1.973846e-07
-4.6588137e-14
4.4268937e-09
-8.0294792e-12
1.2712906e-10
4.7329114e-08
-5.9311018e-14
4.7509586e-13
1.5909263e-10
6.1705369e-08
-3.1675314e-13
1.8201848e-10
6.7402291e-08
8.2072048e-12
1.5908754e-10
6.1705414e-08
1.2724543e-10
4.7329147e-08
2.9972966e-14
1.5560461e-11
6.0583788e-10
1.2074856e-07
-1.1241964e-13
1.0769297e-11
9.2479864e-10
1.5896126e-07
-1.0457374e-11
1.0679136e-09
1.7412714e-07
-1.5382951e-11
9.2491789e-10
1.5896134e-07
6.0599823e-10
1.2074865e-07
3.3342683e-14
9.655188e-11
1.6439696e-09
1.7088813e-07
-1.2157763e-13
4.2759063e-11
2.7901516e-09
2.3022667e-07
-4.255012e-11
3.2503308e-09
2.539232e-07
-9.6377866e-11
2.7902167e-09
2.3022658e-07
1.6441082e-09
1.7088817e-07
1.4002963e-14
2.6049293e-10
3.0334535e-09
1.975711e-07
-1.2033981e-13
1.0620848e-10
5.2113089e-09
2.7445305e-07
-1.0603346e-10
5.8474866e-09
3.0475887e-07
-2.603645e-10
5.2112667e-09
2.7445255e-07
3.0334919e-09
1.9757089e-07
-6.9992077e-15
4.5657094e-10
1.961779e-07
-1.16333e-13
3.784255e-09
2.6263895e-10
2.8094661e-07
5.9176761e-09
-2.624832e-10
3.1221154e-07
6.1727165e-09
-4.5646595e-10
2.8094594e-07
5.9176042e-09
1.9617742e-07
-1.4414781e-14
3.7842252e-09
-7.683495e-12
9.2185877e-11
4.7244675e-08
-6.2467086e-14
-5.0094444e-13
1.1305202e-10
6.1585135e-08
7.0420111e-13
1.2908132e-10
6.7272005e-08
7.9061759e-12
1.1305887e-10
6.1585154e-08
9.2358819e-11
4.7244653e-08
4.120561e-14
1.260402e-11
4.587252e-10
1.2036955e-07
-1.3291968e-13
7.5438659e-12
7.0973333e-10
1.5836964e-07
-7.0476784e-12
8.1892958e-10
1.7345188e-07
-1.2344532e-11
7.0999323e-10
1.583697e-07
4.5901918e-10
1.2036958e-07
6.2130008e-14
8.4159633e-11
1.2957222e-09
1.6996713e-07
-1.5761816e-13
3.8876687e-11
2.2414658e-09
2.2874022e-07
-3.8479442e-11
2.6280315e-09
2.5219145e-07
-8.3847559e-11
2.2417247e-09
2.2874021e-07
1.2960822e-09
1.6996721e-07
5.1480459e-14
2.2823228e-10
2.4816414e-09
1.9615712e-07
-1.7177101e-13
9.2609513e-11
4.4020541e-09
2.7242808e-07
-9.2175999e-11
4.9846953e-09
3.0258699e-07
-2.2792193e-10
4.4022005e-09
2.7242782e-07
2.4819376e-09
1.9615707e-07
3.9016683e-14
3.9123208e-10
1.9502884e-07
-2.0462207e-13
3.239678e-09
2.2493566e-10
2.8024914e-07
5.265826e-09
-2.2438721e-10
3.1205565e-07
5.589908e-09
-3.9087577e-10
2.8024873e-07
5.2658957e-09
1.9502857e-07
3.5895234e-14
3.2398714e-09
-6.9848148e-12
6.3675811e-11
4.7188041e-08
-5.6908768e-14
-1.1604378e-12
7.7284227e-11
6.1502028e-08
1.3915638e-12
8.8457189e-11
6.7180997e-08
7.2241429e-12
7.7304666e-11
6.1502015e-08
6.3869429e-11
4.7187959e-08
4.824395e-14
1.0120237e-11
3.4199123e-10
1.2008125e-07
-1.3898174e-13
5.1182012e-12
5.4161777e-10
1.5791032e-07
-4.4397717e-12
6.2589306e-10
1.7292401e-07
-9.8028001e-12
5.419913e-10
1.5791037e-07
3.423503e-10
1.2008121e-07
8.7981104e-14
7.2816289e-11
1.0195751e-09
1.692169e-07
-1.7859335e-13
3.4989432e-11
1.8066882e-09
2.2751298e-07
-3.4428658e-11
2.1327193e-09
2.5075405e-07
-7.2386955e-11
1.8070978e-09
2.2751307e-07
1.0200761e-09
1.6921701e-07
8.8317294e-14
2.004958e-10
2.0333726e-09
1.9494303e-07
-2.0527655e-13
8.1124294e-11
3.7252883e-09
2.7062885e-07
-8.047724e-11
4.2544081e-09
3.0062691e-07
-2.0002976e-10
3.7255872e-09
2.7062889e-07
2.0338615e-09
1.9494318e-07
8.1294838e-14
3.363867e-10
1.9395073e-07
-2.6644255e-13
2.7753627e-09
1.9332085e-10
2.7943741e-07
4.6800805e-09
-1.9245624e-10
3.1164721e-07
5.0486323e-09
-3.3581928e-10
2.7943741e-07
4.6802731e-09
1.9395078e-07
8.6067285e-14
2.7757455e-09
-6.4907075e-12
4.1903906e-11
4.7152675e-08
-4.8025426e-14
-1.5905684e-12
5.040029e-11
6.1446727e-08
1.8465205e-12
5.7741958e-11
6.7119822e-08
6.7208353e-12
5.0460539e-11
6.1446684e-08
4.2093805e-11
4.7152537e-08
4.757451e-14
7.9727896e-12
2.4863576e-10
1.1986669e-07
-1.3533198e-13
2.9172686e-12
4.0783719e-10
1.5755794e-07
-2.1899408e-12
4.7063766e-10
1.7251621e-07
-7.6097451e-12
4.082794e-10
1.5755797e-07
2.4902576e-10
1.1986656e-07
1.0295808e-13
6.2478594e-11
7.967777e-10
1.6860648e-07
-1.8705676e-13
3.0513937e-11
1.4541292e-09
2.2649866e-07
-2.9827969e-11
1.7232426e-09
2.4956178e-07
-6.1964936e-11
1.4546536e-09
2.2649883e-07
7.973654e-10
1.6860658e-07
1.1913547e-13
1.7648045e-10
1.663568e-09
1.9389999e-07
-2.2190318e-13
7.3790377e-11
3.1493731e-09
2.690363e-07
-7.2971554e-11
3.6340691e-09
2.9886284e-07
-1.7588854e-10
3.1498084e-09
2.6903665e-07
1.6642003e-09
1.9390033e-07
1.2254139e-13
2.9067345e-10
1.9294966e-07
-2.9994487e-13
2.3742622e-09
1.6871208e-10
2.7855952e-07
4.1492227e-09
-1.6758108e-10
3.1106968e-07
4.547891e-09
-2.8993202e-10
2.7856002e-07
4.1495475e-09
1.929501e-07
1.3948855e-13
2.3748069e-09
-6.0368835e-12
2.3209616e-11
4.7135526e-08
-2.5161313e-14
-1.7418671e-12
2.681355e-11
6.1415621e-08
1.8844737e-12
3.0901633e-11
6.7085297e-08
6.2077364e-12
2.6855626e-11
6.1415508e-08
2.3362516e-11
4.713534e-08
3.9661593e-14
6.2687078e-12
1.6964905e-10
1.1971408e-07
-1.0560945e-13
1.4354344e-12
2.949324e-10
1.5729467e-07
-9.1353626e-13
3.4125698e-10
1.722082e-07
-5.9589052e-12
2.9526793e-10
1.572946e-07
1.6998985e-10
1.1971387e-07
1.0015028e-13
5.3363312e-11
6.1044977e-10
1.6811248e-07
-1.6912294e-13
2.6157984e-11
1.159479e-09
2.2566132e-07
-2.5408526e-11
1.3827049e-09
2.485719e-07
-5.2843863e-11
1.1599886e-09
2.2566154e-07
6.1101566e-10
1.6811258e-07
1.2946858e-13
1.5548783e-10
1.3507605e-09
1.930044e-07
-2.1058778e-13
6.7108334e-11
2.6525816e-09
2.6763158e-07
-6.6217852e-11
3.0960831e-09
2.9728279e-07
-1.5485292e-10
2.6530533e-09
2.6763222e-07
1.3514196e-09
1.9300493e-07
1.4357721e-13
2.5180736e-10
1.920271e-07
-2.9021076e-13
2.0218034e-09
1.4746789e-10
2.7765312e-07
3.6633253e-09
-1.4623474e-10
3.1038256e-07
4.0769041e-09
-2.5100158e-10
2.7765413e-07
3.6637137e-09
1.9202794e-07
1.7291218e-13
2.0224096e-09
-5.5632412e-12
6.3340964e-12
4.7134754e-08
-2.2322976e-15
-1.8703713e-12
5.158587e-12
6.1406761e-08
1.9600292e-12
6.386256e-12
6.7075093e-08
5.6658969e-12
5.1877431e-12
6.1406615e-08
6.4306711e-12
4.7134545e-08
3.1100113e-14
4.833613e-12
1.0354474e-10
1.1961206e-07
-6.4997473e-14
4.223672e-13
1.9932657e-10
1.5710495e-07
2.2412175e-14
2.3289057e-10
1.7198213e-07
-4.6075926e-12
1.995924e-10
1.5710484e-07
1.0378066e-10
1.196118e-07
8.8261936e-14
4.5335988e-11
4.552752e-10
1.6771552e-07
-1.3332254e-13
2.2079558e-11
9.1203187e-10
2.249719e-07
-2.1368447e-11
1.0973988e-09
2.4775085e-07
-4.4862837e-11
9.1248349e-10
2.2497216e-07
4.5574608e-10
1.6771562e-07
1.2488799e-13
1.3665094e-10
1.087576e-09
1.9223562e-07
-1.7775804e-13
6.0528719e-11
2.2241446e-09
2.6639559e-07
-5.9672622e-11
2.6273875e-09
2.95873e-07
-1.3604152e-10
2.2246005e-09
2.6639647e-07
1.0881858e-09
1.922363e-07
1.4774859e-13
2.187506e-10
1.9118165e-07
-2.4649298e-13
1.7145295e-09
1.2896548e-10
2.7674551e-07
3.2215378e-09
-1.2776059e-10
3.0962598e-07
3.6406911e-09
-2.1796863e-10
2.7674698e-07
3.2219573e-09
1.9118284e-07
1.8711074e-13
1.7151313e-09
-5.1442091e-12
-7.4043921e-12
4.7147276e-08
2.6335981e-14
-1.9315846e-12
-1.1729057e-11
6.1415233e-08
1.9197692e-12
-1.1907563e-11
6.7083184e-08
5.1640132e-12
-1.1711358e-11
6.1415096e-08
-7.3834768e-12
4.7147061e-08
5.6822872e-14
3.4422698e-12
4.7523066e-11
1.195537e-07
-1.4772966e-14
-5.7558856e-13
1.190792e-10
1.5697815e-07
8.5426095e-13
1.4276595e-10
1.7182604e-07
-3.3359681e-12
1.1926691e-10
1.5697803e-07
4.7598323e-11
1.195534e-07
1.0808232e-13
3.8219157e-11
3.2353449e-10
1.6740139e-07
-8.2549366e-14
1.8410492e-11
7.0263526e-10
2.2440815e-07
-1.7843428e-11
8.5641754e-10
2.4707348e-07
-3.7845677e-11
7.0298025e-10
2.2440843e-07
3.2380021e-10
1.6740147e-07
1.2497556e-13
1.1966742e-10
8.6323021e-10
1.9157638e-07
-1.2717879e-13
5.4397006e-11
1.852687e-09
2.6531081e-07
-5.3699011e-11
2.2170069e-09
2.9462052e-07
-1.1916356e-10
1.8530596e-09
2.6531185e-07
8.6366587e-10
1.9157714e-07
1.4157779e-13
1.8909682e-10
1.9040908e-07
-1.7329799e-13
1.4468692e-09
1.1264018e-10
2.7585555e-07
2.8191027e-09
-1.1164517e-10
3.0883252e-07
3.2347638e-09
-1.8845514e-10
2.7585736e-07
2.8194857e-09
1.9041053e-07
1.7402298e-13
1.4473561e-09
-5.0363134e-12
-1.8224346e-11
4.7170462e-08
5.0199346e-14
-1.8951107e-12
-2.6231884e-11
6.1438371e-08
1.8087907e-12
-2.757372e-11
6.7107065e-08
4.9330019e-12
-2.6246627e-11
6.143824e-08
-1.8310105e-11
4.7170309e-08
-1.3062036e-14
2.8836468e-12
-5.411262e-13
1.195331e-07
4.2459558e-14
-9.9641942e-13
5.2090215e-11
1.5690371e-07
1.2232093e-12
6.8027273e-11
1.7172822e-07
-2.723443e-12
5.2146369e-11
1.5690357e-07
-5.2657987e-13
1.1953287e-07
2.1106849e-14
3.1566311e-11
2.1370025e-10
1.6715561e-07
-1.4657495e-14
1.4885806e-11
5.267777e-10
2.2395014e-07
-1.4538749e-11
6.5417024e-10
2.4651676e-07
-3.1366573e-11
5.26978e-10
2.2395041e-07
2.1379545e-10
1.671557e-07
6.6191322e-14
1.0391751e-10
6.7454671e-10
1.9101167e-07
-5.4919388e-14
4.8403127e-11
1.5331355e-09
2.6435997e-07
-4.7940028e-11
1.8609538e-09
2.9351008e-07
-1.0358404e-10
1.5333908e-09
2.6436108e-07
6.7477818e-10
1.9101247e-07
9.5311645e-14
1.6300866e-10
1.8970703e-07
-8.1808923e-14
1.2136674e-09
9.8243564e-11
2.7499612e-07
2.4573362e-09
-9.7554766e-11
3.0802653e-07
2.862742e-09
-1.6257712e-10
2.7499813e-07
2.4576477e-09
1.8970862e-07
1.2802465e-13
1.2139811e-09
-4.9435578e-12
-2.7720866e-11
4.7203066e-08
7.0953809e-14
-1.9219615e-12
-3.8987046e-11
6.1474338e-08
1.7379176e-12
-4.1540059e-11
6.7144947e-08
4.766412e-12
-3.9030887e-11
6.147424e-08
-2.7861914e-11
4.7202962e-08
-3.6583165e-14
1.2435837e-12
-3.7511948e-11
1.1954155e-07
9.8593954e-14
-1.6315859e-12
-6.4386162e-12
1.5687404e-07
1.504685e-12
2.5533945e-12
1.7168099e-07
-1.3815609e-12
-6.482112e-12
1.5687391e-07
-3.7726193e-11
1.1954138e-07
-2.4864014e-14
2.6677824e-11
1.2185303e-10
1.6696952e-07
5.4397012e-14
1.2165946e-11
3.7547631e-10
2.2358274e-07
-1.2110689e-11
4.8026974e-10
2.4606332e-07
-2.6659678e-11
3.7549946e-10
2.2358298e-07
1.2168275e-10
1.6696961e-07
1.7093138e-14
9.0461932e-11
5.1319979e-10
1.9052985e-07
2.1678229e-14
4.3168874e-11
1.2542549e-09
2.6352849e-07
-4.3018957e-11
1.5481446e-09
2.925284e-07
-9.0346862e-11
1.2543427e-09
2.6352957e-07
5.1314884e-10
1.9053062e-07
4.1843724e-14
1.4050597e-10
1.8907151e-07
3.082585e-14
1.0081857e-09
8.5919662e-11
2.7417564e-07
2.1293182e-09
-8.565821e-11
3.0722606e-07
2.5201891e-09
-1.4035708e-10
2.7417768e-07
2.129492e-09
1.8907309e-07
5.8585468e-14
1.0082604e-09
-4.8015241e-12
-3.594241e-11
4.7243727e-08
8.3338174e-14
-1.891215e-12
-4.9481529e-11
6.152091e-08
1.6296252e-12
-5.2753318e-11
6.719418e-08
4.5557519e-12
-4.9537614e-11
6.1520852e-08
-3.6121294e-11
4.7243695e-08
-5.6552957e-14
-1.460598e-13
-7.117034e-11
1.1957678e-07
1.4175817e-13
-2.0589648e-12
-5.546862e-11
1.5688194e-07
1.7374587e-12
-5.0478982e-11
1.7167492e-07
-1.5770314e-13
-5.5572017e-11
1.5688184e-07
-7.1530927e-11
1.195767e-07
-7.3737306e-14
2.2011686e-11
4.2288108e-11
1.6683393e-07
1.1791573e-13
9.5108726e-12
2.4695863e-10
2.2329282e-07
-9.7648031e-12
3.3361198e-10
2.4569851e-07
-2.2185359e-11
2.4682158e-10
2.2329301e-07
4.1885802e-11
1.6683405e-07
-3.9319535e-14
7.770476e-11
3.7474084e-10
1.9011959e-07
9.4923333e-14
3.8010802e-11
1.0127057e-09
2.6280244e-07
-3.8183041e-11
1.2753241e-09
2.9166288e-07
-7.7819078e-11
1.012628e-09
2.628034e-07
3.7442909e-10
1.9012027e-07
-1.713031e-14
1.2065374e-10
1.8849773e-07
1.2592048e-13
8.2773659e-10
7.5100706e-11
2.7339883e-07
1.835078e-09
-7.5272169e-11
3.0644439e-07
2.2073722e-09
-1.2079284e-10
2.7340073e-07
1.8351011e-09
1.8849918e-07
-2.1280083e-14
8.2756411e-10
-4.6606293e-12
-4.2999793e-11
4.7291299e-08
8.8412979e-14
-1.8203138e-12
-5.8761351e-11
6.1576831e-08
1.5103928e-12
-6.281366e-11
6.7253663e-08
4.3747206e-12
-5.8829516e-11
6.1576817e-08
-4.3200862e-11
4.7291342e-08
-7.0688838e-14
-1.2279425e-12
-9.96795e-11
1.1963451e-07
1.763753e-13
-2.3417506e-12
-9.8149018e-11
1.5692244e-07
1.8511616e-12
-9.8022762e-11
1.7170594e-07
7.8612714e-13
-9.8292527e-11
1.5692237e-07
-1.0014648e-10
1.1963455e-07
-1.1752691e-13
1.7979533e-11
-2.6142407e-11
1.6674224e-07
1.7530859e-13
7.5302705e-12
1.3515409e-10
2.2306996e-07
-8.0825661e-12
2.0517523e-10
2.4541092e-07
-1.8326363e-11
1.3486191e-10
2.230701e-07
-2.6716548e-11
1.6674239e-07
-9.8732188e-14
6.6253877e-11
2.544569e-10
1.8977258e-07
1.6005425e-13
3.326756e-11
8.004388e-10
2.6217014e-07
-3.3759037e-11
1.0338741e-09
2.9090121e-07
-6.6601067e-11
8.0018281e-10
2.6217092e-07
2.5388625e-10
1.8977315e-07
-8.3445768e-14
1.032313e-10
1.879815e-07
2.0867757e-13
6.6725129e-10
6.5323436e-11
2.7266815e-07
1.5690275e-09
-6.595001e-11
3.0568966e-07
1.919873e-09
-1.0366531e-10
2.7266977e-07
1.568857e-09
1.879827e-07
-1.0800165e-13
6.6681047e-10
-4.5872703e-12
-4.8733617e-11
4.7344533e-08
8.7111149e-14
-1.7616626e-12
-6.638265e-11
6.1640389e-08
1.4350189e-12
-7.0997011e-11
6.7321464e-08
4.2997265e-12
-6.6474183e-11
6.1640427e-08
-4.89099e-11
4.734463e-08
-7.8343313e-14
-2.4568699e-12
-1.2310752e-10
1.1971113e-07
2.0767871e-13
-2.6351883e-12
-1.3397491e-10
1.5699022e-07
2.0161479e-12
-1.3712793e-10
1.7176742e-07
1.774144e-12
-1.3405087e-10
1.5699019e-07
-1.2369449e-10
1.1971127e-07
-1.555102e-13
1.4144636e-11
-8.3143895e-11
1.6668791e-07
2.1746097e-13
5.4415105e-12
3.9915355e-11
2.2290478e-07
-6.2553017e-12
9.5910634e-11
2.4518958e-07
-1.4616734e-11
3.955736e-11
2.2290485e-07
-8.3869646e-11
1.666881e-07
-1.486628e-13
5.6210871e-11
1.5116494e-10
1.8948185e-07
2.1185187e-13
2.8653456e-11
6.1601522e-10
2.616216e-07
-2.9421687e-11
8.2212866e-10
2.9023307e-07
-5.6734689e-11
6.1562843e-10
2.6162216e-07
1.5042072e-10
1.8948227e-07
-1.3893316e-13
8.8226458e-11
1.8751809e-07
2.6609761e-13
5.2608064e-10
5.6903959e-11
2.7198479e-07
1.3306904e-09
-5.7882745e-11
3.0496881e-07
1.6577694e-09
-8.8880644e-11
2.7198604e-07
1.3303578e-09
1.8751897e-07
-1.7839684e-13
5.2545029e-10
-4.4263723e-12
-5.395962e-11
4.7402845e-08
7.483015e-14
-1.6158078e-12
-7.3313372e-11
6.1710892e-08
1.3118629e-12
-7.7924154e-11
6.7396461e-08
4.1570106e-12
-7.3389761e-11
6.1710973e-08
-5.4119953e-11
4.7402986e-08
-7.884344e-14
-3.5974217e-12
-1.4379137e-10
1.1980436e-07
2.0388895e-13
-2.699115e-12
-1.6639372e-10
1.570824e-07
2.0253785e-12
-1.7021457e-10
1.7185499e-07
2.7750953e-12
-1.6638448e-10
1.5708243e-07
-1.4446737e-10
1.1980458e-07
-1.8514665e-13
1.1035849e-11
-1.3335462e-10
1.6666621e-07
2.3223433e-13
4.2311253e-12
-4.6090951e-11
2.2279128e-07
-5.257443e-12
4.0712945e-12
2.4502479e-07
-1.1584518e-11
-4.6530451e-11
2.2279133e-07
-1.341934e-10
1.6666643e-07
-1.8875213e-13
4.7088355e-11
6.1345587e-11
1.8923981e-07
2.4974834e-13
2.3513942e-11
4.5237202e-10
2.6114671e-07
-2.4456966e-11
6.3480379e-10
2.8965031e-07
-4.7742271e-11
4.5187779e-10
2.6114704e-07
6.0467185e-11
1.8924006e-07
-1.9545681e-13
7.4871126e-11