/*--------------------------------*- C++ -*----------------------------------*\
| =========                 |                                                 |
| \\      /  F ield         | OpenFOAM: The Open Source CFD Toolbox           |
|  \\    /   O peration     | Version:  2.3.x                                 |
|   \\  /    A nd           | Web:      www.OpenFOAM.org                      |
|    \\/     M anipulation  |                                                 |
\*---------------------------------------------------------------------------*/
FoamFile
{
    version     2.0;
    format      ascii;
    class       volScalarField;
    location    "0.024";
    object      thermo:mu;
}
// * * * * * * * * * * * * * * * * * * * * * * * * * * * * * * * * * * * * * //

dimensions      [1 -1 -1 0 0 0 0];

internalField   nonuniform List<scalar> 
10000
(
2.7116209e-05
2.5663076e-05
2.5145244e-05
2.5663075e-05
2.7116208e-05
1.9790204e-05
1.9267927e-05
1.9117147e-05
1.9267926e-05
1.9790204e-05
1.8452587e-05
1.8346723e-05
1.8321562e-05
1.8346723e-05
1.8452588e-05
1.8256697e-05
1.823975e-05
1.8236656e-05
1.823975e-05
1.8256697e-05
1.823158e-05
1.82292e-05
1.8228928e-05
1.82292e-05
1.823158e-05
3.3737503e-05
3.2812046e-05
3.2413288e-05
3.2812049e-05
3.3737508e-05
2.5350527e-05
2.3471551e-05
2.2858987e-05
2.3471566e-05
2.5350547e-05
2.0177638e-05
1.9284739e-05
1.9067804e-05
1.9284783e-05
2.0177706e-05
1.8601241e-05
1.838607e-05
1.8345709e-05
1.8386074e-05
1.8601251e-05
1.8292043e-05
1.8247708e-05
1.8242125e-05
1.8247708e-05
1.8292042e-05
3.5249151e-05
3.4821225e-05
3.4634678e-05
3.4821222e-05
3.5249146e-05
2.8492071e-05
2.6682677e-05
2.5984255e-05
2.6682658e-05
2.8492049e-05
2.2256776e-05
2.0774679e-05
2.0350573e-05
2.0774645e-05
2.225673e-05
1.9308821e-05
1.8722971e-05
1.8604291e-05
1.8722941e-05
1.9308783e-05
1.8443633e-05
1.8296505e-05
1.8277615e-05
1.8296501e-05
1.8443574e-05
3.5720526e-05
3.5439489e-05
3.5332349e-05
3.5439484e-05
3.5720518e-05
3.0338107e-05
2.8832332e-05
2.8214109e-05
2.8832307e-05
3.0338069e-05
2.4166105e-05
2.2303483e-05
2.1722572e-05
2.2303431e-05
2.4166019e-05
2.0207189e-05
1.9223212e-05
1.9003811e-05
1.9223181e-05
2.0207118e-05
1.8717682e-05
1.8394755e-05
1.8349238e-05
1.839475e-05
1.871764e-05
3.5929664e-05
3.5693095e-05
3.5605453e-05
3.5693095e-05
3.5929662e-05
3.1368067e-05
3.0155421e-05
2.9649844e-05
3.0155415e-05
3.1368053e-05
2.5673017e-05
2.3710247e-05
2.3047072e-05
2.3710224e-05
2.5672977e-05
2.1177073e-05
1.9841388e-05
1.9514465e-05
1.9841379e-05
2.1177044e-05
1.9092605e-05
1.8553915e-05
1.8466374e-05
1.8553924e-05
1.9092611e-05
3.607095e-05
3.5853336e-05
3.5773592e-05
3.5853336e-05
3.6070948e-05
3.2017799e-05
3.099159e-05
3.0575706e-05
3.0991586e-05
3.2017787e-05
2.6818634e-05
2.4893941e-05
2.4207901e-05
2.4893921e-05
2.6818599e-05
2.2114637e-05
2.0507627e-05
2.0083039e-05
2.0507607e-05
2.2114596e-05
1.9538134e-05
1.8767951e-05
1.8628842e-05
1.876794e-05
1.9538117e-05
3.6176943e-05
3.5975372e-05
3.5901549e-05
3.5975374e-05
3.6176943e-05
3.247482e-05
3.1566862e-05
3.1208616e-05
3.1566864e-05
3.2474817e-05
2.7695632e-05
2.5867618e-05
2.5189631e-05
2.5867613e-05
2.7695618e-05
2.2968505e-05
2.1175361e-05
2.06661e-05
2.117535e-05
2.2968485e-05
2.0014307e-05
1.9019943e-05
1.8823051e-05
1.9019929e-05
2.0014297e-05
3.6260325e-05
3.607283e-05
3.6004299e-05
3.6072833e-05
3.6260327e-05
3.2822222e-05
3.1996976e-05
3.1676487e-05
3.1996985e-05
3.2822228e-05
2.8384887e-05
2.6670099e-05
2.6017399e-05
2.6670111e-05
2.8384893e-05
2.3731785e-05
2.1823745e-05
2.1246348e-05
2.1823749e-05
2.3731788e-05
2.0501509e-05
1.9299636e-05
1.9041819e-05
1.9299629e-05
2.0501511e-05
3.6328696e-05
3.6153368e-05
3.6089324e-05
3.6153371e-05
3.6328699e-05
3.3101314e-05
3.2340445e-05
3.2046795e-05
3.2340457e-05
3.3101324e-05
2.8944921e-05
2.7342065e-05
2.6722039e-05
2.7342084e-05
2.8944934e-05
2.441362e-05
2.2447296e-05
2.1818318e-05
2.2447305e-05
2.4413625e-05
2.0990728e-05
1.9603183e-05
1.9283021e-05
1.9603166e-05
2.099071e-05
3.6386655e-05
3.6221235e-05
3.6160784e-05
3.6221238e-05
3.638666e-05
3.3334568e-05
3.2625061e-05
3.2351647e-05
3.2625076e-05
3.3334584e-05
2.9414342e-05
2.7912308e-05
2.7325766e-05
2.7912338e-05
2.941437e-05
2.5026251e-05
2.3041943e-05
2.2376921e-05
2.3041975e-05
2.5026283e-05
2.1478117e-05
1.9928394e-05
1.9546634e-05
1.9928405e-05
2.1478135e-05
3.6436542e-05
3.6279886e-05
3.6222405e-05
3.6279888e-05
3.6436545e-05
3.3533467e-05
3.2867974e-05
3.2611011e-05
3.2867987e-05
3.353348e-05
2.9815472e-05
2.8403271e-05
2.7848479e-05
2.84033e-05
2.9815495e-05
2.5577325e-05
2.3603412e-05
2.2916189e-05
2.3603446e-05
2.5577353e-05
2.1957141e-05
2.027015e-05
1.9829709e-05
2.0270159e-05
2.195715e-05
3.6480258e-05
3.6331157e-05
3.6276191e-05
3.633116e-05
3.6480261e-05
3.3706325e-05
3.3078327e-05
3.2835187e-05
3.307834e-05
3.3706338e-05
3.0164143e-05
2.8830385e-05
2.8304343e-05
2.8830419e-05
3.0164172e-05
2.6074225e-05
2.4129211e-05
2.3431157e-05
2.4129261e-05
2.6074272e-05
2.2422324e-05
2.0623361e-05
2.0128629e-05
2.0623403e-05
2.2422372e-05
3.6518915e-05
3.6376336e-05
3.6323594e-05
3.6376337e-05
3.6518917e-05
3.3858079e-05
3.326209e-05
3.3030978e-05
3.3262099e-05
3.3858086e-05
3.0470318e-05
2.9204463e-05
2.8704195e-05
2.920449e-05
3.0470339e-05
2.6522816e-05
2.4617378e-05
2.3917317e-05
2.4617424e-05
2.6522855e-05
2.2869387e-05
2.0982257e-05
2.0438748e-05
2.0982296e-05
2.2869431e-05
3.6553472e-05
3.64166e-05
3.6365856e-05
3.6416601e-05
3.6553472e-05
3.3992812e-05
3.3424596e-05
3.3204048e-05
3.3424602e-05
3.3992816e-05
3.0742011e-05
2.9535654e-05
2.9058286e-05
2.9535678e-05
3.0742029e-05
2.6929217e-05
2.506935e-05
2.4373717e-05
2.5069397e-05
2.6929259e-05
2.3296203e-05
2.1342381e-05
2.0756427e-05
2.1342433e-05
2.3296265e-05
3.6584673e-05
3.6452842e-05
3.6403913e-05
3.6452841e-05
3.6584671e-05
3.4113741e-05
3.3569775e-05
3.3358619e-05
3.3569775e-05
3.4113737e-05
3.0985617e-05
2.9831565e-05
2.9374665e-05
2.9831577e-05
3.0985619e-05
2.7299263e-05
2.5487376e-05
2.4800603e-05
2.5487407e-05
2.7299285e-05
2.3702149e-05
2.1700326e-05
2.1078483e-05
2.1700361e-05
2.3702189e-05
3.6613078e-05
3.6485755e-05
3.6438487e-05
3.6485753e-05
3.6613074e-05
3.4223243e-05
3.3700729e-05
3.3498017e-05
3.3700723e-05
3.4223233e-05
3.1205948e-05
3.0098429e-05
2.9660005e-05
3.009843e-05
3.1205938e-05
2.7637932e-05
2.5874501e-05
2.5199507e-05
2.5874517e-05
2.7637937e-05
2.408743e-05
2.2053444e-05
2.1402114e-05
2.2053466e-05
2.4087453e-05
3.6639129e-05
3.6515872e-05
3.6470115e-05
3.6515868e-05
3.6639123e-05
3.4323166e-05
3.3819813e-05
3.3624681e-05
3.38198e-05
3.4323147e-05
3.1406709e-05
3.0340939e-05
2.9919158e-05
3.0340923e-05
3.1406681e-05
2.7949337e-05
2.6233545e-05
2.5572029e-05
2.6233534e-05
2.7949311e-05
2.4452684e-05
2.2399648e-05
2.172494e-05
2.2399636e-05
2.4452664e-05
3.6663154e-05
3.6543585e-05
3.6499209e-05
3.6543579e-05
3.6663147e-05
3.4414913e-05
3.392881e-05
3.3740536e-05
3.3928792e-05
3.4414889e-05
3.1590752e-05
3.0562721e-05
3.0156073e-05
3.0562692e-05
3.159071e-05
2.8236813e-05
2.6567134e-05
2.5920038e-05
2.6567099e-05
2.823676e-05
2.4798595e-05
2.273714e-05
2.2044619e-05
2.2737099e-05
2.4798538e-05
3.6685411e-05
3.65692e-05
3.6526091e-05
3.6569194e-05
3.6685403e-05
3.4499583e-05
3.4029099e-05
3.3847064e-05
3.4029076e-05
3.4499553e-05
3.1760372e-05
3.0766662e-05
3.0373871e-05
3.076662e-05
3.1760315e-05
2.8503275e-05
2.687782e-05
2.6245522e-05
2.6877759e-05
2.8503192e-05
2.5126291e-05
2.3064978e-05
2.2359556e-05
2.30649e-05
2.5126187e-05
3.6706137e-05
3.6593008e-05
3.6551072e-05
3.6593002e-05
3.6706129e-05
3.457812e-05
3.4121868e-05
3.3945548e-05
3.4121843e-05
3.4578089e-05
3.1917437e-05
3.0955083e-05
3.0575033e-05
3.0955034e-05
3.1917374e-05
2.8751075e-05
2.7167737e-05
2.6550232e-05
2.7167659e-05
2.8750973e-05
2.5436657e-05
2.3382119e-05
2.2668021e-05
2.3382015e-05
2.543652e-05
3.6725512e-05
3.6615234e-05
3.6574388e-05
3.6615228e-05
3.6725504e-05
3.4651271e-05
3.4208114e-05
3.4037067e-05
3.420809e-05
3.465124e-05
3.2063514e-05
3.113005e-05
3.0761785e-05
3.1129996e-05
3.2063446e-05
2.8982412e-05
2.7439157e-05
2.6836199e-05
2.7439064e-05
2.8982295e-05
2.5731047e-05
2.368853e-05
2.2969312e-05
2.36884e-05
2.573088e-05
3.6743696e-05
3.6636049e-05
3.6596213e-05
3.6636044e-05
3.674369e-05
3.4719708e-05
3.428857e-05
3.4122382e-05
3.4288549e-05
3.4719682e-05
3.2199926e-05
3.1293057e-05
3.0935707e-05
3.1293005e-05
3.2199863e-05
2.9198972e-05
2.7693691e-05
2.7104895e-05
2.7693595e-05
2.9198855e-05
2.601027e-05
2.3983691e-05
2.3262297e-05
2.3983552e-05
2.6010094e-05
3.6760821e-05
3.6655627e-05
3.6616737e-05
3.6655624e-05
3.6760816e-05
3.4783962e-05
3.4363971e-05
3.4202298e-05
3.4363954e-05
3.4783941e-05
3.2327807e-05
3.1445617e-05
3.1098413e-05
3.144557e-05
3.2327752e-05
2.9402461e-05
2.793323e-05
2.7358094e-05
2.7933138e-05
2.9402351e-05
2.6275707e-05
2.4268113e-05
2.3546929e-05
2.4267973e-05
2.6275533e-05
3.6776983e-05
3.6674084e-05
3.663608e-05
3.6674082e-05
3.6776981e-05
3.4844426e-05
3.4434804e-05
3.4277342e-05
3.4434792e-05
3.4844413e-05
3.2447942e-05
3.1588719e-05
3.1251007e-05
3.1588682e-05
3.2447901e-05
2.9593942e-05
2.8158918e-05
2.759697e-05
2.8158838e-05
2.9593852e-05
2.6527936e-05
2.4541534e-05
2.3822471e-05
2.4541407e-05
2.6527782e-05
3.67923e-05
3.6691552e-05
3.6654374e-05
3.6691551e-05
3.67923e-05
3.4901571e-05
3.4501629e-05
3.4348068e-05
3.4501623e-05
3.4901566e-05
3.2561304e-05
3.1723533e-05
3.1394614e-05
3.1723507e-05
3.2561279e-05
2.9774874e-05
2.8372349e-05
2.7822961e-05
2.8372286e-05
2.9774807e-05
2.6768323e-05
2.4804788e-05
2.4089341e-05
2.4804681e-05
2.6768199e-05
3.680683e-05
3.6708108e-05
3.6671717e-05
3.6708108e-05
3.6806831e-05
3.4955635e-05
3.4564766e-05
3.4414902e-05
3.4564765e-05
3.4955637e-05
3.2668378e-05
3.1850704e-05
3.153014e-05
3.1850691e-05
3.2668369e-05
2.9945929e-05
2.8574305e-05
2.8037045e-05
2.8574263e-05
2.9945892e-05
2.699726e-05
2.5057727e-05
2.4347049e-05
2.5057648e-05
2.6997177e-05
3.6820667e-05
3.6723855e-05
3.6688199e-05
3.6723856e-05
3.682067e-05
3.5007e-05
3.4624646e-05
3.4478226e-05
3.462465e-05
3.5007009e-05
3.2769958e-05
3.1971145e-05
3.1658346e-05
3.1971142e-05
3.2769964e-05
3.0108355e-05
2.8766106e-05
2.8240383e-05
2.8766085e-05
3.0108345e-05
2.7216077e-05
2.5301332e-05
2.4596354e-05
2.5301284e-05
2.7216036e-05
3.6833844e-05
3.6738845e-05
3.6703882e-05
3.6738847e-05
3.6833849e-05
3.50558e-05
3.4681494e-05
3.4538296e-05
3.4681501e-05
3.5055814e-05
3.2866306e-05
3.2085321e-05
3.1779787e-05
3.2085329e-05
3.2866325e-05
3.0262475e-05
2.8948336e-05
2.8433551e-05
2.8948334e-05
3.0262493e-05
2.7424892e-05
2.5535511e-05
2.4836801e-05
2.5535495e-05
2.7424895e-05
3.6846443e-05
3.6753167e-05
3.6718861e-05
3.6753169e-05
3.6846448e-05
3.5102352e-05
3.4735665e-05
3.4595518e-05
3.4735674e-05
3.5102368e-05
3.2958083e-05
3.2193972e-05
3.189532e-05
3.2193987e-05
3.2958112e-05
3.0409358e-05
2.9122082e-05
2.8617829e-05
2.9122099e-05
3.0409398e-05
2.7624926e-05
2.576126e-05
2.5069445e-05
2.5761274e-05
2.7624968e-05
3.6858489e-05
3.6766857e-05
3.6733166e-05
3.6766859e-05
3.6858494e-05
3.5146766e-05
3.4787319e-05
3.4650018e-05
3.478733e-05
3.5146784e-05
3.3045516e-05
3.2297441e-05
3.20052e-05
3.2297461e-05
3.3045552e-05
3.0549328e-05
2.9287831e-05
2.8793463e-05
2.9287861e-05
3.0549383e-05
2.7816395e-05
2.5978607e-05
2.5293838e-05
2.5978644e-05
2.7816466e-05
3.6870049e-05
3.6779978e-05
3.6746883e-05
3.6779981e-05
3.6870053e-05
3.51893e-05
3.4836717e-05
3.4702153e-05
3.4836728e-05
3.5189318e-05
3.3129138e-05
3.2396243e-05
3.2110197e-05
3.2396267e-05
3.3129177e-05
3.0683231e-05
2.9446295e-05
2.8961674e-05
2.9446335e-05
3.0683296e-05
2.8000307e-05
2.6188305e-05
2.5511166e-05
2.6188362e-05
2.80004e-05
3.6881134e-05
3.6792553e-05
3.6760021e-05
3.6792555e-05
3.6881138e-05
3.5230012e-05
3.4883946e-05
3.4751962e-05
3.4883955e-05
3.5230028e-05
3.3209069e-05
3.2490583e-05
3.2210361e-05
3.2490606e-05
3.3209106e-05
3.0811245e-05
2.9597787e-05
2.9122369e-05
2.959783e-05
3.0811312e-05
2.8176776e-05
2.6390361e-05
2.572085e-05
2.6390427e-05
2.8176877e-05
3.6891806e-05
3.6804657e-05
3.6772663e-05
3.6804658e-05
3.6891809e-05
3.5269131e-05
3.4929307e-05
3.4799786e-05
3.4929315e-05
3.5269144e-05
3.3285775e-05
3.2581071e-05
3.2306412e-05
3.2581093e-05
3.3285808e-05
3.0934103e-05
2.974324e-05
2.9276695e-05
2.9743284e-05
3.0934169e-05
2.8346665e-05
2.658574e-05
2.592409e-05
2.6585814e-05
2.8346771e-05
3.6902067e-05
3.681629e-05
3.6784809e-05
3.6816291e-05
3.6902069e-05
3.530668e-05
3.4972814e-05
3.4845627e-05
3.4972821e-05
3.530669e-05
3.3359312e-05
3.2667757e-05
3.2398358e-05
3.2667775e-05
3.3359338e-05
3.1051902e-05
2.9882741e-05
2.9424618e-05
2.988278e-05
3.1051959e-05
2.8510099e-05
2.6774434e-05
2.6120528e-05
2.6774501e-05
2.8510194e-05
3.6911972e-05
3.6827519e-05
3.6796531e-05
3.682752e-05
3.6911973e-05
3.5342862e-05
3.5014727e-05
3.4889778e-05
3.5014732e-05
3.534287e-05
3.3430084e-05
3.2751159e-05
3.2486801e-05
3.2751174e-05
3.3430106e-05
3.1165248e-05
3.0017027e-05
2.9567075e-05
3.0017062e-05
3.1165297e-05
2.8667735e-05
2.6957059e-05
2.6311156e-05
2.6957125e-05
2.8667824e-05
3.6921516e-05
3.6838333e-05
3.6807817e-05
3.6838333e-05
3.6921516e-05
3.5377671e-05
3.5055019e-05
3.4932203e-05
3.5055022e-05
3.5377674e-05
3.3498096e-05
3.2831258e-05
3.2571701e-05
3.2831268e-05
3.3498109e-05
3.1274183e-05
3.0146143e-05
2.9704032e-05
3.0146168e-05
3.1274215e-05
2.8819664e-05
2.7133746e-05
2.6495844e-05
2.7133796e-05
2.8819728e-05
3.6930751e-05
3.68488e-05
3.6818735e-05
3.68488e-05
3.6930752e-05
3.5411298e-05
3.509394e-05
3.497316e-05
3.5093942e-05
3.54113e-05
3.3563709e-05
3.290853e-05
3.2653551e-05
3.2908538e-05
3.3563718e-05
3.1379218e-05
3.0270724e-05
2.9836126e-05
3.0270746e-05
3.1379244e-05
2.8966408e-05
2.7304926e-05
2.6674954e-05
2.7304972e-05
2.8966464e-05
3.6939671e-05
3.6858908e-05
3.6829274e-05
3.6858908e-05
3.6939671e-05
3.5443729e-05
3.5131468e-05
3.5012629e-05
3.5131469e-05
3.5443729e-05
3.3626936e-05
3.2982981e-05
3.2732372e-05
3.2982984e-05
3.3626937e-05
3.1480473e-05
3.0390919e-05
2.9963561e-05
3.039093e-05
3.1480482e-05
2.9108291e-05
2.7471088e-05
2.6849066e-05
2.7471113e-05
2.9108318e-05
3.6948322e-05
3.6868711e-05
3.6839493e-05
3.6868711e-05
3.6948322e-05
3.5475129e-05
3.5167794e-05
3.5050822e-05
3.5167794e-05
3.5475129e-05
3.3688059e-05
3.3054931e-05
3.280852e-05
3.3054933e-05
3.368806e-05
3.1578268e-05
3.0507016e-05
3.0086643e-05
3.0507026e-05
3.1578277e-05
2.9245434e-05
2.7631993e-05
2.7017835e-05
2.7632018e-05
2.9245461e-05
3.6956697e-05
3.6878198e-05
3.6849381e-05
3.6878198e-05
3.6956696e-05
3.5505491e-05
3.5202903e-05
3.5087727e-05
3.5202902e-05
3.5505489e-05
3.3747132e-05
3.3124449e-05
3.2882085e-05
3.3124448e-05
3.3747128e-05
3.1672859e-05
3.0619396e-05
3.0205824e-05
3.0619396e-05
3.1672855e-05
2.9378522e-05
2.778875e-05
2.7182568e-05
2.7788755e-05
2.9378521e-05
3.6964831e-05
3.6887412e-05
3.6858985e-05
3.6887412e-05
3.6964831e-05
3.5534929e-05
3.5236931e-05
3.5123494e-05
3.5236931e-05
3.5534929e-05
3.3804308e-05
3.3191698e-05
3.2953235e-05
3.3191698e-05
3.3804307e-05
3.1764277e-05
3.072797e-05
3.0320956e-05
3.0727973e-05
3.1764278e-05
2.9507107e-05
2.7940341e-05
2.7341947e-05
2.7940351e-05
2.9507116e-05
3.6972727e-05
3.6896353e-05
3.6868303e-05
3.6896353e-05
3.6972727e-05
3.5563478e-05
3.5269918e-05
3.515816e-05
3.5269918e-05
3.5563477e-05
3.3859752e-05
3.3256905e-05
3.3022222e-05
3.3256903e-05
3.3859748e-05
3.1853045e-05
3.0833517e-05
3.0432936e-05
3.0833513e-05
3.1853036e-05
2.9632454e-05
2.8088768e-05
2.7498322e-05
2.8088762e-05
2.963244e-05
3.6980403e-05
3.6905045e-05
3.6877363e-05
3.6905046e-05
3.6980404e-05
3.5591184e-05
3.5301921e-05
3.5191789e-05
3.5301922e-05
3.5591186e-05
3.3913442e-05
3.332001e-05
3.3088971e-05
3.3320012e-05
3.3913444e-05
3.1938818e-05
3.0935428e-05
3.0541028e-05
3.093543e-05
3.193882e-05
2.975339e-05
2.8231945e-05
2.7649162e-05
2.8231949e-05
2.9753394e-05
3.6987876e-05
3.6913505e-05
3.6886179e-05
3.6913505e-05
3.6987876e-05
3.5618136e-05
3.5333045e-05
3.5224492e-05
3.5333046e-05
3.5618137e-05
3.3965698e-05
3.3381442e-05
3.3153954e-05
3.3381442e-05
3.3965698e-05
3.2022476e-05
3.1034983e-05
3.0646695e-05
3.1034979e-05
3.202247e-05
2.9871907e-05
2.8372974e-05
2.7798095e-05
2.8372965e-05
2.9871894e-05
3.6995143e-05
3.6921733e-05
3.6894754e-05
3.6921734e-05
3.6995145e-05
3.5644296e-05
3.5363246e-05
3.5256221e-05
3.5363248e-05
3.5644301e-05
3.4016285e-05
3.3440864e-05
3.3216793e-05
3.3440868e-05
3.4016293e-05
3.2103217e-05
3.1130948e-05
3.0748502e-05
3.1130953e-05
3.2103226e-05
2.9985969e-05
2.8508509e-05
2.7941146e-05
2.8508515e-05
2.998598e-05
3.700224e-05
3.6929766e-05
3.6903126e-05
3.6929767e-05
3.7002242e-05
3.5669837e-05
3.5392727e-05
3.5287192e-05
3.5392729e-05
3.5669841e-05
3.4065731e-05
3.3498974e-05
3.3278255e-05
3.3498977e-05
3.4065736e-05
3.2182375e-05
3.1225229e-05
3.0848617e-05
3.1225229e-05
3.2182377e-05
3.0098448e-05
2.8642962e-05
2.8083451e-05
2.8642959e-05
3.0098446e-05
3.7009142e-05
3.6937578e-05
3.6911267e-05
3.693758e-05
3.7009144e-05
3.5694614e-05
3.5421317e-05
3.5317222e-05
3.5421321e-05
3.5694622e-05
3.4113542e-05
3.3555105e-05
3.33376e-05
3.3555112e-05
3.4113555e-05
3.2258608e-05
3.1315861e-05
3.0944784e-05
3.1315871e-05
3.2258626e-05
3.0206304e-05
2.877154e-05
2.8219383e-05
2.8771553e-05
3.0206327e-05
3.7015905e-05
3.6945234e-05
3.6919244e-05
3.6945235e-05
3.7015907e-05
3.5718905e-05
3.5449346e-05
3.5346662e-05
3.5449349e-05
3.5718912e-05
3.4160505e-05
3.3610286e-05
3.3395961e-05
3.3610292e-05
3.4160515e-05
3.2333792e-05
3.1405493e-05
3.104001e-05
3.14055e-05
3.2333804e-05
3.0313439e-05
2.890015e-05
2.835579e-05
2.8900156e-05
3.031345e-05
3.7022476e-05
3.6952671e-05
3.6926994e-05
3.6952672e-05
3.7022478e-05
3.5742436e-05
3.5476486e-05
3.5375165e-05
3.5476492e-05
3.5742446e-05
3.4205817e-05
3.3663459e-05
3.3452168e-05
3.3663469e-05
3.4205835e-05
3.2405961e-05
3.1491316e-05
3.1131092e-05
3.1491332e-05
3.2405987e-05
3.0415666e-05
2.9022364e-05
2.8485191e-05
2.9022385e-05
3.04157e-05
3.7028943e-05
3.695999e-05
3.6934621e-05
3.6959992e-05
3.7028945e-05
3.5765617e-05
3.5503228e-05
3.540325e-05
3.5503232e-05
3.5765625e-05
3.425058e-05
3.3716051e-05
3.3507792e-05
3.371606e-05
3.4250594e-05
3.2477632e-05
3.1576844e-05
3.1222005e-05
3.1576856e-05
3.2477652e-05
3.0518066e-05
2.914578e-05
2.8616352e-05
2.9145795e-05
3.0518091e-05
3.7035213e-05
3.6967088e-05
3.6942016e-05
3.6967089e-05
3.7035216e-05
3.5788019e-05
3.5529058e-05
3.5430372e-05
3.5529064e-05
3.578803e-05
3.4293629e-05
3.3766548e-05
3.3561163e-05
3.376656e-05
3.429365e-05
3.2546116e-05
3.1658301e-05
3.1308473e-05
3.1658321e-05
3.2546148e-05
3.0615161e-05
2.9262151e-05
2.8739737e-05
2.9262178e-05
3.0615205e-05
3.7041416e-05
3.6974108e-05
3.6949332e-05
3.6974109e-05
3.7041418e-05
3.5810211e-05
3.5554655e-05
3.5457255e-05
3.555466e-05
3.581022e-05
3.433644e-05
3.3816848e-05
3.3614367e-05
3.3816858e-05
3.4336456e-05
3.2614677e-05
3.17402e-05
3.1395578e-05
3.1740216e-05
3.2614702e-05
3.0713367e-05
2.938095e-05
2.8866231e-05
2.9380973e-05
3.0713402e-05
3.7047412e-05
3.6980896e-05
3.6956405e-05
3.6980897e-05
3.7047415e-05
3.5831585e-05
3.5579292e-05
3.5483123e-05
3.5579299e-05
3.5831596e-05
3.4377429e-05
3.3864909e-05
3.3665159e-05
3.3864922e-05
3.437745e-05
3.2679801e-05
3.1817674e-05
3.1477834e-05
3.1817695e-05
3.2679835e-05
3.0805754e-05
2.9491922e-05
2.898404e-05
2.9491954e-05
3.0805803e-05
3.7053379e-05
3.698765e-05
3.6963444e-05
3.6987651e-05
3.7053381e-05
3.5852899e-05
3.5603875e-05
3.5508941e-05
3.560388e-05
3.5852908e-05
3.4418508e-05
3.3913181e-05
3.3716225e-05
3.3913192e-05
3.4418526e-05
3.274561e-05
3.1896367e-05
3.1561578e-05
3.1896386e-05
3.2745638e-05
3.0900247e-05
2.960662e-05
2.9106384e-05
2.9606648e-05
3.0900288e-05
3.7059124e-05
3.6994154e-05
3.6970223e-05
3.6994156e-05
3.7059126e-05
3.5873331e-05
3.5627421e-05
3.5533662e-05
3.5627427e-05
3.5873341e-05
3.4457609e-05
3.3959011e-05
3.3764656e-05
3.3959024e-05
3.445763e-05
3.2807648e-05
3.1970177e-05
3.1639959e-05
3.1970199e-05
3.2807683e-05
3.0988286e-05
2.9712566e-05
2.9218988e-05
2.9712599e-05
3.0988336e-05
3.7064881e-05
3.7000672e-05
3.6977016e-05
3.7000673e-05
3.7064883e-05
3.5893865e-05
3.5651103e-05
3.5558536e-05
3.5651109e-05
3.5893873e-05
3.4497157e-05
3.4005491e-05
3.3813834e-05
3.4005502e-05
3.4497174e-05
3.2871029e-05
3.2046044e-05
3.1720743e-05
3.2046063e-05
3.2871057e-05
3.1079498e-05
2.9823628e-05
2.9337649e-05
2.9823659e-05
3.1079541e-05
3.7070395e-05
3.7006915e-05
3.6983523e-05
3.7006916e-05
3.7070397e-05
3.5913429e-05
3.5673643e-05
3.55822e-05
3.5673649e-05
3.5913438e-05
3.4534515e-05
3.4049262e-05
3.3860085e-05
3.4049274e-05
3.4534534e-05
3.2930211e-05
3.2116455e-05
3.1795528e-05
3.2116476e-05
3.2930243e-05
3.1163485e-05
2.9924856e-05
2.9445349e-05
2.9924888e-05
3.1163533e-05
3.7075967e-05
3.7013224e-05
3.6990099e-05
3.7013225e-05
3.7075969e-05
3.5933274e-05
3.5696532e-05
3.5606241e-05
3.5696536e-05
3.5933281e-05
3.4572713e-05
3.4094165e-05
3.3907604e-05
3.4094176e-05
3.4572729e-05
3.2991456e-05
3.218984e-05
3.1873716e-05
3.2189859e-05
3.2991484e-05
3.1251814e-05
3.0032715e-05
2.9560764e-05
3.0032746e-05
3.1251856e-05
3.7081265e-05
3.7019224e-05
3.6996353e-05
3.7019225e-05
3.7081267e-05
3.595203e-05
3.5718137e-05
3.5628922e-05
3.5718142e-05
3.5952038e-05
3.4608448e-05
3.4136017e-05
3.3951824e-05
3.4136028e-05
3.4608465e-05
3.3047969e-05
3.2257066e-05
3.1945127e-05
3.2257085e-05
3.3047998e-05
3.1331989e-05
3.0129467e-05
2.9663797e-05
3.0129496e-05
3.1332032e-05
3.7086674e-05
3.7025348e-05
3.7002738e-05
3.7025349e-05
3.7086675e-05
3.597127e-05
3.5740328e-05
3.5652234e-05
3.5740332e-05
3.5971276e-05
3.4645465e-05
3.4179543e-05
3.3997896e-05
3.4179553e-05
3.4645479e-05
3.3107353e-05
3.2328292e-05
3.202106e-05
3.232831e-05
3.3107379e-05
3.1417807e-05
3.0234533e-05
2.977638e-05
3.0234562e-05
3.1417846e-05
3.709177e-05
3.7031121e-05
3.7008755e-05
3.7031122e-05
3.7091772e-05
3.5989269e-05
3.5761056e-05
3.5673994e-05
3.5761061e-05
3.5989276e-05
3.4679674e-05
3.4219588e-05
3.4040203e-05
3.4219598e-05
3.4679689e-05
3.3161346e-05
3.2392501e-05
3.2089271e-05
3.2392518e-05
3.3161371e-05
3.1494354e-05
3.032699e-05
2.9874914e-05
3.0327016e-05
3.1494392e-05
3.7097037e-05
3.7037086e-05
3.7014974e-05
3.7037087e-05
3.7097039e-05
3.6007984e-05
3.5782643e-05
3.5696673e-05
3.5782647e-05
3.6007989e-05
3.471567e-05
3.4261928e-05
3.4085029e-05
3.4261936e-05
3.4715683e-05
3.3219129e-05
3.2461876e-05
3.2163274e-05
3.2461891e-05
3.3219152e-05
3.1578018e-05
3.0429658e-05
2.9985063e-05
3.0429684e-05
3.1578053e-05
3.7101943e-05
3.7042643e-05
3.7020768e-05
3.7042644e-05
3.7101944e-05
3.6025266e-05
3.580254e-05
3.5717559e-05
3.5802544e-05
3.6025272e-05
3.4748429e-05
3.4300252e-05
3.4125512e-05
3.4300259e-05
3.4748441e-05
3.3270713e-05
3.252319e-05
3.222841e-05
3.2523204e-05
3.3270734e-05
3.1651071e-05
3.0517941e-05
3.0079205e-05
3.0517964e-05
3.1651104e-05
3.7107088e-05
3.7048471e-05
3.7026845e-05
3.7048472e-05
3.7107089e-05
3.6043532e-05
3.5823612e-05
3.5739701e-05
3.5823615e-05
3.6043536e-05
3.4783559e-05
3.4341588e-05
3.416929e-05
3.4341595e-05
3.478357e-05
3.3327149e-05
3.2591012e-05
3.2300799e-05
3.2591025e-05
3.3327168e-05
3.1732929e-05
3.06186e-05
3.0187315e-05
3.0618622e-05
3.173296e-05
3.7111811e-05
3.7053821e-05
3.7032424e-05
3.7053822e-05
3.7111812e-05
3.6060125e-05
3.5842709e-05
3.5759746e-05
3.5842712e-05
3.6060129e-05
3.4814919e-05
3.4378248e-05
3.4208008e-05
3.4378255e-05
3.4814928e-05
3.3376396e-05
3.2649507e-05
3.2362934e-05
3.2649519e-05
3.3376414e-05
3.1802568e-05
3.0702771e-05
3.0277111e-05
3.0702791e-05
3.1802596e-05
3.7116854e-05
3.7059535e-05
3.7038383e-05
3.7059535e-05
3.7116855e-05
3.6078017e-05
3.5863354e-05
3.5781444e-05
3.5863357e-05
3.6078021e-05
3.4849338e-05
3.4418766e-05
3.4250933e-05
3.4418772e-05
3.4849347e-05
3.3431739e-05
3.2716078e-05
3.2434026e-05
3.2716089e-05
3.3431756e-05
3.1882973e-05
3.0801816e-05
3.0383583e-05
3.0801835e-05
3.1882999e-05
3.7121398e-05
3.7064683e-05
3.7043751e-05
3.7064683e-05
3.7121399e-05
3.6093937e-05
3.5881668e-05
3.5800665e-05
3.588167e-05
3.609394e-05
3.4879324e-05
3.4453788e-05
3.4287911e-05
3.4453794e-05
3.4879331e-05
3.347868e-05
3.2771781e-05
3.2493184e-05
3.2771792e-05
3.3478695e-05
3.1949221e-05
3.0881878e-05
3.046902e-05
3.0881895e-05
3.1949244e-05
3.712636e-05
3.7070306e-05
3.7049616e-05
3.7070306e-05
3.7126361e-05
3.6111535e-05
3.5901978e-05
3.5822015e-05
3.590198e-05
3.6111537e-05
3.4913192e-05
3.4493679e-05
3.4330185e-05
3.4493683e-05
3.4913199e-05
3.3533195e-05
3.2837413e-05
3.2563307e-05
3.2837422e-05
3.3533208e-05
3.2028535e-05
3.0979716e-05
3.0574269e-05
3.0979732e-05
3.2028557e-05
3.7130726e-05
3.7075252e-05
3.7054775e-05
3.7075253e-05
3.7130726e-05
3.612678e-05
3.5919507e-05
3.5840409e-05
3.5919509e-05
3.6126782e-05
3.4941797e-05
3.4527051e-05
3.4365409e-05
3.4527055e-05
3.4941802e-05
3.357781e-05
3.2890293e-05
3.261945e-05
3.2890301e-05
3.3577821e-05
3.2091353e-05
3.1055603e-05
3.0655265e-05
3.1055618e-05
3.2091373e-05
3.713563e-05
3.708081e-05
3.7060573e-05
3.708081e-05
3.713563e-05
3.6144169e-05
3.5939583e-05
3.5861517e-05
3.5939584e-05
3.6144171e-05
3.4975291e-05
3.4566524e-05
3.4407254e-05
3.4566527e-05
3.4975296e-05
3.3631783e-05
3.2955322e-05
3.2688958e-05
3.2955329e-05
3.3631792e-05
3.2169967e-05
3.115267e-05
3.0759733e-05
3.1152682e-05
3.2169984e-05
3.7139812e-05
3.7085549e-05
3.7065515e-05
3.7085549e-05
3.7139812e-05
3.6158719e-05
3.5956302e-05
3.5879057e-05
3.5956302e-05
3.615872e-05
3.5002465e-05
3.4598185e-05
3.4440656e-05
3.4598187e-05
3.5002469e-05
3.3673987e-05
3.3005276e-05
3.2741975e-05
3.3005283e-05
3.3673995e-05
3.2229241e-05
3.1224242e-05
3.0836135e-05
3.1224253e-05
3.2229256e-05
3.7144684e-05
3.7091072e-05
3.7071278e-05
3.7091072e-05
3.7144684e-05
3.6176002e-05
3.5976262e-05
3.5900048e-05
3.5976262e-05
3.6176002e-05
3.5035793e-05
3.4637485e-05
3.4482332e-05
3.4637486e-05
3.5035796e-05
3.3727748e-05
3.3070084e-05
3.2811266e-05
3.3070089e-05
3.3727754e-05
3.2307585e-05
3.132101e-05
3.0940305e-05
3.132102e-05
3.2307598e-05
3.7148671e-05
3.7095589e-05
3.7075989e-05
3.7095589e-05
3.714867e-05
3.6189807e-05
3.5992109e-05
3.5916669e-05
3.5992109e-05
3.6189807e-05
3.5061429e-05
3.4667303e-05
3.4513773e-05
3.4667305e-05
3.5061431e-05
3.3767376e-05
3.3116923e-05
3.2860959e-05
3.3116927e-05
3.3767381e-05
3.2363111e-05
3.1388043e-05
3.1011877e-05
3.1388051e-05
3.2363122e-05
3.7153547e-05
3.7101118e-05
3.7081759e-05
3.7101118e-05
3.7153547e-05
3.6207118e-05
3.6012111e-05
3.593771e-05
3.6012111e-05
3.6207117e-05
3.5094859e-05
3.4706743e-05
3.4555607e-05
3.4706743e-05
3.5094859e-05
3.3821325e-05
3.318196e-05
3.2930496e-05
3.3181963e-05
3.3821328e-05
3.2441678e-05
3.1485038e-05
3.1116277e-05
3.1485044e-05
3.2441686e-05
3.7157312e-05
3.7105384e-05
3.7086208e-05
3.7105384e-05
3.7157312e-05
3.6220076e-05
3.6026967e-05
3.5953284e-05
3.6026966e-05
3.6220075e-05
3.5118754e-05
3.4734486e-05
3.4584842e-05
3.4734486e-05
3.5118754e-05
3.3858097e-05
3.3225383e-05
3.297656e-05
3.3225385e-05
3.3858099e-05
3.2493152e-05
3.1547217e-05
3.1182702e-05
3.1547223e-05
3.2493157e-05
3.7162247e-05
3.7110979e-05
3.7092047e-05
3.7110978e-05
3.7162246e-05
3.623762e-05
3.6047248e-05
3.5974622e-05
3.6047246e-05
3.6237617e-05
3.5152666e-05
3.4774497e-05
3.462728e-05
3.4774496e-05
3.5152664e-05
3.3912746e-05
3.3291194e-05
3.3046893e-05
3.3291194e-05
3.3912745e-05
3.2572506e-05
3.164501e-05
3.1287899e-05
3.1645013e-05
3.2572509e-05
3.7165735e-05
3.7114932e-05
3.7096171e-05
3.7114931e-05
3.7165734e-05
3.6249516e-05
3.6060864e-05
3.5988888e-05
3.6060862e-05
3.6249513e-05
3.5174446e-05
3.4799754e-05
3.4653894e-05
3.4799752e-05
3.5174442e-05
3.3946222e-05
3.3330765e-05
3.3088902e-05
3.3330765e-05
3.394622e-05
3.2619506e-05
3.1701937e-05
3.1348783e-05
3.1701939e-05
3.2619506e-05
3.7170834e-05
3.7120713e-05
3.7102203e-05
3.7120711e-05
3.7170832e-05
3.6267686e-05
3.6081872e-05
3.6010991e-05
3.6081869e-05
3.6267681e-05
3.5209458e-05
3.4840984e-05
3.4697585e-05
3.484098e-05
3.5209451e-05
3.400224e-05
3.3397993e-05
3.3160656e-05
3.3397991e-05
3.4002234e-05
3.270028e-05
3.1801114e-05
3.1455343e-05
3.1801114e-05
3.2700276e-05
3.7173883e-05
3.7124165e-05
3.7105803e-05
3.7124164e-05
3.7173881e-05
3.6277946e-05
3.6093614e-05
3.6023299e-05
3.609361e-05
3.627794e-05
3.5228402e-05
3.486306e-05
3.4720897e-05
3.4863055e-05
3.5228393e-05
3.4031784e-05
3.3433151e-05
3.3198076e-05
3.3433147e-05
3.4031776e-05
3.2742264e-05
3.1852313e-05
3.1510233e-05
3.1852312e-05
3.2742258e-05
3.7180333e-05
3.7131484e-05
3.7113444e-05
3.7131482e-05
3.718033e-05
3.6301068e-05
3.6120314e-05
3.6051372e-05
3.6120308e-05
3.6301058e-05
3.5272569e-05
3.4914889e-05
3.4775751e-05
3.4914881e-05
3.5272555e-05
3.4101824e-05
3.3516907e-05
3.3287363e-05
3.35169e-05
3.410181e-05
3.2842625e-05
3.1975159e-05
3.1642083e-05
3.1975155e-05
3.2842613e-05
2.7116208e-05
2.5663076e-05
2.5145247e-05
2.5663079e-05
2.711621e-05
1.9790204e-05
1.9267926e-05
1.9117146e-05
1.9267927e-05
1.9790205e-05
1.8452588e-05
1.8346723e-05
1.8321562e-05
1.8346723e-05
1.8452587e-05
1.8256697e-05
1.823975e-05
1.8236656e-05
1.823975e-05
1.8256697e-05
1.823158e-05
1.82292e-05
1.8228928e-05
1.82292e-05
1.823158e-05
3.3737507e-05
3.2812048e-05
3.2413284e-05
3.2812043e-05
3.3737501e-05
2.5350547e-05
2.3471562e-05
2.2858969e-05
2.347154e-05
2.5350519e-05
2.0177705e-05
1.9284777e-05
1.9067783e-05
1.9284722e-05
2.0177627e-05
1.860125e-05
1.8386073e-05
1.8345705e-05
1.8386066e-05
1.8601235e-05
1.8292042e-05
1.8247708e-05
1.8242124e-05
1.8247707e-05
1.8292042e-05
3.5249146e-05
3.482122e-05
3.463468e-05
3.4821221e-05
3.5249147e-05
2.8492048e-05
2.6682647e-05
2.5984252e-05
2.6682652e-05
2.849205e-05
2.225673e-05
2.0774636e-05
2.035057e-05
2.0774649e-05
2.2256738e-05
1.9308784e-05
1.8722947e-05
1.8604307e-05
1.8722978e-05
1.930881e-05
1.8443577e-05
1.8296501e-05
1.8277614e-05
1.8296504e-05
1.8443651e-05
3.5720518e-05
3.5439483e-05
3.5332348e-05
3.5439488e-05
3.5720525e-05
3.0338069e-05
2.8832298e-05
2.8214097e-05
2.8832318e-05
3.0338096e-05
2.4166018e-05
2.2303413e-05
2.1722545e-05
2.2303443e-05
2.4166068e-05
2.0207116e-05
1.9223163e-05
1.9003782e-05
1.9223172e-05
2.0207146e-05
1.8717635e-05
1.8394734e-05