/*--------------------------------*- C++ -*----------------------------------*\
| =========                 |                                                 |
| \\      /  F ield         | OpenFOAM: The Open Source CFD Toolbox           |
|  \\    /   O peration     | Version:  2.3.x                                 |
|   \\  /    A nd           | Web:      www.OpenFOAM.org                      |
|    \\/     M anipulation  |                                                 |
\*---------------------------------------------------------------------------*/
FoamFile
{
    version     2.0;
    format      ascii;
    class       volVectorField;
    location    "0.024";
    object      U;
}
// * * * * * * * * * * * * * * * * * * * * * * * * * * * * * * * * * * * * * //

dimensions      [0 1 -1 0 0 0 0];

internalField   nonuniform List<vector> 
10000
(
(0.22701856 0.031490594 1.6919179)
(0.20708407 0.088401216 1.8115619)
(0.15659299 0.15659282 1.8479198)
(0.088401409 0.20708391 1.8115622)
(0.031490773 0.22701838 1.6919185)
(0.48874702 0.088744197 2.1650806)
(0.42376234 0.19396199 2.1451241)
(0.31854388 0.31854394 2.1357778)
(0.19396189 0.42376217 2.1451237)
(0.088744231 0.48874686 2.1650796)
(0.43716014 0.090064253 2.1313955)
(0.35732694 0.1610501 2.1025727)
(0.25935518 0.25935548 2.0894378)
(0.1610499 0.35732706 2.1025727)
(0.090064098 0.43716007 2.131395)
(0.29873924 0.078054538 2.0675556)
(0.227408 0.094637337 2.0541254)
(0.16083336 0.16083346 2.0504437)
(0.094637601 0.22740851 2.0541257)
(0.078054709 0.29873989 2.0675557)
(0.20136229 0.065107002 2.050154)
(0.153333 0.052581744 2.0462948)
(0.10773575 0.10773567 2.0433273)
(0.052582011 0.15333322 2.0462951)
(0.065107245 0.2013627 2.0501543)
(0.097754909 0.023649035 1.7663271)
(0.10624479 0.064736466 1.9533026)
(0.093659746 0.093658841 2.0160156)
(0.064737635 0.10624452 1.9533028)
(0.023650057 0.097755209 1.7663276)
(0.37651291 0.06865806 2.6361892)
(0.35459606 0.16985494 2.6340567)
(0.27753815 0.27753747 2.6270489)
(0.16985597 0.35459621 2.6340583)
(0.068659328 0.37651375 2.6361927)
(0.41416901 0.074425469 2.6597171)
(0.3600615 0.164737 2.5989187)
(0.27467826 0.27467752 2.5794466)
(0.16473798 0.36006162 2.5989204)
(0.074426729 0.41417008 2.6597206)
(0.36648556 0.069304433 2.5621776)
(0.28997538 0.12402118 2.4837746)
(0.21057531 0.21057413 2.45835)
(0.1240224 0.289975 2.4837755)
(0.069305778 0.36648634 2.5621797)
(0.27258482 0.062662311 2.4458082)
(0.20506571 0.074106018 2.3832294)
(0.14947882 0.14947749 2.3668291)
(0.074107182 0.20506441 2.3832297)
(0.062663588 0.27258454 2.4458092)
(0.02230867 0.010589439 1.4689663)
(0.025206787 0.02486292 1.7091759)
(0.028769067 0.028767664 1.8009244)
(0.024864477 0.025205992 1.7091743)
(0.01059064 0.022308789 1.4689634)
(0.14545745 0.034588928 2.8399695)
(0.17415632 0.10018679 2.9857564)
(0.15053604 0.15053361 3.0095761)
(0.10019012 0.17415555 2.9857558)
(0.034591287 0.14545812 2.8399664)
(0.23488652 0.041696555 3.0750785)
(0.22454438 0.11545011 3.024445)
(0.17841466 0.17841205 3.0043797)
(0.11545313 0.22454263 3.0244454)
(0.041699343 0.2348866 3.075079)
(0.24058084 0.034483062 3.0011095)
(0.20233352 0.097231841 2.9079084)
(0.15344109 0.15343871 2.8818682)
(0.097234069 0.20233084 2.9079078)
(0.034485145 0.24057914 3.0011097)
(0.19427311 0.027098465 2.8545394)
(0.14747905 0.062449541 2.775704)
(0.11166246 0.11166061 2.7555482)
(0.06245134 0.14747606 2.7757031)
(0.027099747 0.19426992 2.8545378)
(-0.0010799676 0.0041208035 1.1640002)
(-0.0021168011 0.006647337 1.341613)
(0.0016626908 0.0016631825 1.4140944)
(0.0066466214 -0.0021170072 1.3416105)
(0.0041200851 -0.0010805335 1.1639959)
(0.098736629 0.024119497 2.7745884)
(0.10391099 0.065441265 2.9689319)
(0.095333984 0.095332963 3.0287332)
(0.065442368 0.10390961 2.9689286)
(0.024120433 0.098735554 2.7745826)
(0.16116109 0.024906623 3.2551346)
(0.15890885 0.084606432 3.2491213)
(0.13046121 0.13045979 3.2391586)
(0.084607988 0.15890702 3.2491189)
(0.024907682 0.16115934 3.2551298)
(0.17891542 0.020108 3.2403222)
(0.15421052 0.076695828 3.1734133)
(0.1179028 0.11790181 3.1499583)
(0.076696915 0.15420875 3.1734111)
(0.020108495 0.17891319 3.2403182)
(0.15420308 0.014864176 3.1251081)
(0.10925189 0.05095052 3.0429268)
(0.082004304 0.082003933 3.0253205)
(0.050950947 0.10925057 3.0429253)
(0.014864019 0.15420065 3.1251043)
(-0.0035012434 -0.0013957344 1.0632476)
(-0.0041760695 -0.0023096043 1.2079216)
(-0.0039128688 -0.003911036 1.263069)
(-0.002312073 -0.004175281 1.2079219)
(-0.0013979961 -0.0035012928 1.0632473)
(0.047164965 0.0077934542 2.6606676)
(0.05732822 0.034325971 2.8937665)
(0.05489039 0.054891833 2.9713761)
(0.034323609 0.057327903 2.8937657)
(0.0077908795 0.047163457 2.6606654)
(0.11268568 0.013302521 3.3391192)
(0.11942384 0.062092268 3.3787195)
(0.09982719 0.099827841 3.3795718)
(0.062091309 0.11942342 3.3787177)
(0.013300944 0.11268411 3.3391158)
(0.14712723 0.012355044 3.3994515)
(0.13051252 0.063708956 3.346748)
(0.10158953 0.10159017 3.3281626)
(0.063708217 0.13051251 3.3467463)
(0.012353853 0.14712633 3.3994479)
(0.13962634 0.010574384 3.3082343)
(0.10164961 0.0470984 3.2293102)
(0.074067686 0.074068644 3.2083117)
(0.047097272 0.10165 3.2293092)
(0.010573202 0.13962574 3.3082312)
(-0.0021339867 -0.0019081644 1.0220348)
(-0.0035384671 -0.0040266834 1.1560767)
(-0.0044842269 -0.0044826961 1.2045092)
(-0.0040287585 -0.0035373605 1.1560778)
(-0.0019100976 -0.0021335197 1.0220363)
(0.021458429 0.00087161341 2.5920616)
(0.026941967 0.014718666 2.8367758)
(0.026209629 0.026211787 2.9202636)
(0.014715654 0.026943142 2.8367765)
(0.00086841217 0.021458779 2.5920624)
(0.073541597 0.0055155461 3.39156)
(0.083360173 0.043388432 3.4756138)
(0.072559182 0.072560387 3.4867546)
(0.043386998 0.083361158 3.4756132)
(0.0055133885 0.073542178 3.3915589)
(0.11555314 0.0062314467 3.5310653)
(0.10801558 0.052914466 3.4870116)
(0.084709281 0.084709966 3.4693589)
(0.052913908 0.10801666 3.4870105)
(0.0062303914 0.11555435 3.531063)
(0.12219582 0.0065314828 3.4585496)
(0.094283474 0.044053577 3.3815696)
(0.06874398 0.068744382 3.3588356)
(0.044053144 0.094284405 3.3815692)
(0.0065309301 0.12219699 3.4585476)
(-0.00086579452 -0.00076249417 1.0003835)
(-0.0018738403 -0.0021404205 1.1322672)
(-0.0025499726 -0.0025491152 1.1792294)
(-0.0021419995 -0.0018729977 1.1322681)
(-0.00076401817 -0.00086544752 1.000385)
(0.011220347 -0.00064125293 2.5522251)
(0.01272069 0.0064168222 2.8014764)
(0.012069621 0.012071518 2.8869289)
(0.0064135641 0.012722105 2.8014774)
(-0.00064458585 0.011221027 2.5522267)
(0.047018101 0.0012871005 3.4288471)
(0.055704873 0.029420764 3.5524423)
(0.04996656 0.049967955 3.5756803)
(0.029418442 0.055705965 3.552442)
(0.0012842418 0.047019012 3.4288468)
(0.08686772 0.0016219198 3.6461366)
(0.085284102 0.042657181 3.6154492)
(0.068193049 0.068193909 3.5981345)
(0.042656024 0.085285331 3.6154481)
(0.0016202548 0.086869282 3.6461345)
(0.10101477 0.0026394953 3.5936388)
(0.081885059 0.039300591 3.518755)
(0.060028911 0.060029418 3.4948333)
(0.039299819 0.081886183 3.5187542)
(0.0026384395 0.10101645 3.5936367)
(-0.00032462926 -3.136038e-05 0.98811144)
(-0.00072306373 -0.0006137961 1.1200689)
(-0.00094212213 -0.00094161377 1.1670071)
(-0.00061485488 -0.00072251615 1.1200694)
(-3.2365298e-05 -0.00032445768 0.98811265)
(0.0072237776 -0.00060369237 2.5311285)
(0.0073614966 0.0035953809 2.783574)
(0.0066674483 0.0066689519 2.8698529)
(0.0035925027 0.0073627558 2.7835748)
(-0.00060654091 0.0072244431 2.5311303)
(0.031550008 -0.00060602056 3.4592491)
(0.03796639 0.020095889 3.6159064)
(0.034728323 0.034729802 3.650563)
(0.020093169 0.037967503 3.6159064)
(-0.00060893037 0.031551162 3.4592494)
(0.06540117 -0.0010745019 3.7474631)
(0.067051023 0.033893715 3.7345784)
(0.054459317 0.054460425 3.7189786)
(0.033892099 0.067052383 3.7345775)
(-0.0010762877 0.065403024 3.7474616)
(0.082541742 0.0002154832 3.7173466)
(0.069733156 0.034056414 3.6472446)
(0.0510906 0.051091356 3.6224291)
(0.034055383 0.069734508 3.6472439)
(0.00021432015 0.082543773 3.717345)
(-9.364317e-05 0.00014938878 0.98055474)
(-0.0001978676 -7.1343201e-05 1.1120428)
(-0.00024485978 -0.00024446184 1.1589096)
(-7.1979381e-05 -0.00019746884 1.1120432)
(0.00014893027 -9.3630414e-05 0.98055574)
(0.0053965794 -0.00041397174 2.5215673)
(0.0054995298 0.0026349514 2.7755456)
(0.0047988076 0.0048001207 2.8621096)
(0.002632423 0.0055005613 2.7755462)
(-0.00041601698 0.0053968596 2.5215688)
(0.022867183 -0.0012526598 3.4871436)
(0.027567256 0.014408567 3.6692199)
(0.025367453 0.025368912 3.7136858)
(0.014405688 0.027568066 3.6692199)
(-0.0012552614 0.022867857 3.4871439)
(0.051187883 -0.0022520413 3.8373822)
(0.054445693 0.027492185 3.8439851)
(0.044724445 0.044725727 3.8310979)
(0.027490237 0.054446752 3.8439842)
(-0.0022539499 0.051189188 3.8373809)
(0.068785518 -0.00067967745 3.8310976)
(0.060872937 0.029770149 3.7667796)
(0.044580115 0.044581182 3.7412166)
(0.029768814 0.060874212 3.7667786)
(-0.00068113329 0.068787158 3.8310959)
(1.3225917e-05 0.00019203079 0.97507425)
(2.9004298e-05 0.00016539332 1.1063442)
(2.3368799e-05 2.3511446e-05 1.1530804)
(0.00016514904 2.9110162e-05 1.1063449)
(0.00019200729 1.3182436e-05 0.97507546)
(0.0043895788 -0.00035916283 2.5177616)
(0.004326666 0.0020859224 2.7750562)
(0.0037565646 0.003757497 2.8622328)
(0.0020843205 0.0043271847 2.7750571)
(-0.00036043991 0.0043895421 2.5177636)
(0.017697 -0.0014896095 3.5135182)
(0.021102981 0.010705815 3.7160063)
(0.019313149 0.019314669 3.7688382)
(0.010702957 0.021103503 3.7160067)
(-0.0014918433 0.017697037 3.5135193)
(0.041104171 -0.0026115195 3.9176337)
(0.04551653 0.022733434 3.9448979)
(0.037753597 0.037755273 3.9355407)
(0.022730894 0.045517324 3.9448975)
(-0.0026136834 0.041104564 3.9176332)
(0.059247275 -0.00075603617 3.9378551)
(0.05455381 0.026475097 3.8793479)
(0.040133903 0.04013567 3.8530772)
(0.026472908 0.054555113 3.8793471)
(-0.00075805336 0.059248234 3.9378538)
(5.2772833e-05 0.00017430082 0.9710164)
(2.9746942e-05 0.00015747207 1.1016446)
(2.7275889e-05 2.7029246e-05 1.1482417)
(0.00015770961 2.961187e-05 1.1016454)
(0.00017480489 5.2706474e-05 0.97101769)
(0.0034233323 -0.00022134384 2.5176307)
(0.0037759632 0.0018858539 2.7763745)
(0.0032086634 0.0032091339 2.8643588)
(0.0018848659 0.0037761254 2.7763758)
(-0.00022137598 0.0034232257 2.517633)
(0.013985435 -0.0014190719 3.5388093)
(0.016703455 0.0083147185 3.7573487)
(0.015125438 0.015126555 3.8172722)
(0.0083125015 0.016703606 3.7573495)
(-0.0014203425 0.013985164 3.5388108)
(0.033486498 -0.0026081021 3.9896589)
(0.038494193 0.019016602 4.0377446)
(0.032251559 0.032253043 4.0327097)
(0.019014249 0.038494532 4.0377447)
(-0.0026098311 0.033486269 3.9896591)
(0.05145317 -0.00066234299 4.0378576)
(0.049350429 0.023711151 3.9848809)
(0.036615154 0.036616903 3.9583438)
(0.02370894 0.049351355 3.9848805)
(-0.00066422414 0.051453448 4.0378569)
(2.3486659e-05 9.025699e-05 0.96789122)
(-1.4359709e-05 9.3718983e-05 1.0980443)
(-6.9577603e-06 -7.6087853e-06 1.1446384)
(9.4459654e-05 -1.4769922e-05 1.0980454)
(9.1212453e-05 2.3387309e-05 0.96789268)
(0.0027777024 -0.00025898779 2.51885)
(0.0030181236 0.0015063551 2.7797607)
(0.002512934 0.0025127912 2.8690713)
(0.0015062348 0.0030178821 2.7797627)
(-0.00025824508 0.0027775081 2.5188527)
(0.011101821 -0.0013922097 3.5630783)
(0.013295209 0.0064383345 3.7950121)
(0.011857406 0.011858042 3.8610644)
(0.0064368456 0.01329501 3.7950135)
(-0.0013926178 0.011101232 3.5630808)
(0.027330104 -0.0025408793 4.0554214)
(0.032474098 0.015813745 4.1240548)
(0.027439437 0.027440666 4.1240063)
(0.01581158 0.032474003 4.1240555)
(-0.0025421793 0.027329237 4.0554226)
(0.04453961 -0.00062449517 4.1325361)
(0.044344119 0.021107891 4.0857346)
(0.033256551 0.0332583 4.0596156)
(0.021105531 0.044344689 4.0857349)
(-0.00062625143 0.044539174 4.1325363)
(6.5560878e-06 3.3003666e-05 0.96571045)
(-2.9264973e-05 7.2885575e-05 1.0956016)
(-1.4382915e-05 -1.5612628e-05 1.1422191)
(7.4359895e-05 -3.005538e-05 1.0956028)
(3.459306e-05 6.4863217e-06 0.96571187)
(0.0020929947 -0.00035200075 2.5217589)
(0.0022578848 0.0010870596 2.7852046)
(0.0018667494 0.0018656423 2.8756775)
(0.0010885043 0.00225721 2.7852068)
(-0.00034989134 0.0020929977 2.5217619)
(0.0087450701 -0.0014118199 3.5866665)
(0.01050322 0.0048931763 3.8301185)
(0.0092279715 0.0092276396 3.901402)
(0.0048933336 0.010502823 3.8301204)
(-0.0014106553 0.0087448071 3.5866696)
(0.022230489 -0.0025096731 4.1159932)
(0.027114323 0.012948593 4.2042597)
(0.023104942 0.023105178 4.2097016)
(0.012947806 0.027113883 4.204261)
(-0.0025095321 0.02222979 4.1159953)
(0.038329937 -0.00068134571 4.2219326)
(0.039574745 0.018659787 4.1819471)
(0.029986342 0.029987008 4.1565598)
(0.018658685 0.039574691 4.181948)
(-0.00068172387 0.038329353 4.2219339)
(3.7964785e-06 1.7488804e-05 0.96437693)
(-4.6033459e-05 8.0391202e-05 1.0941054)
(-1.8788128e-05 -2.0600918e-05 1.1407958)
(8.2603022e-05 -4.7234078e-05 1.0941064)
(1.9684103e-05 3.6955165e-06 0.96437795)
(0.0015334314 -0.00038620027 2.5261901)
(0.0016535937 0.00079794114 2.7918312)
(0.0013565332 0.0013543405 2.8835087)
(0.00080108254 0.0016524142 2.7918333)
(-0.00038260104 0.0015336402 2.5261927)
(0.0068440751 -0.0013947803 3.6099634)
(0.0082967007 0.0037115871 3.8634594)
(0.0071826018 0.007181114 3.9393113)
(0.0037136592 0.0082960661 3.8634615)
(-0.0013919017 0.0068441767 3.6099666)
(0.018058984 -0.0024346977 4.1726728)
(0.022635344 0.010578858 4.2795507)
(0.019378092 0.019377136 4.2907089)
(0.010579748 0.022634552 4.2795526)
(-0.0024328995 0.018058579 4.1726756)
(0.032841281 -0.00074998812 4.307135)
(0.035020416 0.016384805 4.2750602)
(0.026868998 0.026868387 4.2505417)
(0.016385224 0.035019693 4.2750617)
(-0.0007487306 0.032840669 4.3071372)
(1.070598e-07 1.325923e-05 0.96365965)
(-5.7686496e-05 8.5173514e-05 1.0933413)
(-1.9429546e-05 -2.1727492e-05 1.1401152)
(8.8066352e-05 -5.9268318e-05 1.0933419)
(1.5982997e-05 -2.2218345e-08 0.96365974)
(0.0011104969 -0.00037946181 2.531474)
(0.0011825062 0.00058844522 2.7992984)
(0.00096755033 0.00096421723 2.8921349)
(0.00059345736 0.0011808272 2.7992997)
(-0.00037433959 0.0011109586 2.5314751)
(0.0053660032 -0.0013212107 3.6327335)
(0.0065989349 0.0028422415 3.8952138)
(0.0056347987 0.0056318924 3.9751137)
(0.0028467239 0.0065981323 3.8952154)
(-0.0013163455 0.0053667467 3.6327357)
(0.014732663 -0.0023185131 4.2257149)
(0.018808995 0.0085751134 4.3498625)
(0.016220426 0.016217827 4.3668979)
(0.0085784384 0.01880791 4.3498644)
(-0.0023145377 0.014733019 4.2257175)
(0.028160387 -0.00080625155 4.3877659)
(0.0311178 0.014441409 4.3647012)
(0.024099541 0.024096965 4.3409823)
(0.014444282 0.031116271 4.364703)
(-0.00080264832 0.028160145 4.3877685)
(-7.5633752e-06 9.4005621e-06 0.9634817)
(-7.0662986e-05 7.9968862e-05 1.0932014)
(-2.3205848e-05 -2.5800747e-05 1.1400746)
(8.3227518e-05 -7.2553949e-05 1.0932013)
(1.2286896e-05 -7.7454501e-06 0.9634804)
(0.00076116896 -0.00036493865 2.5375512)
(0.0007984173 0.00041206897 2.8075171)
(0.00065541947 0.0006511991 2.901441)
(0.00041861896 0.00079624903 2.8075172)
(-0.00035876363 0.00076157782 2.5375499)
(0.0041692023 -0.0012360693 3.655211)
(0.0052472063 0.0021661615 3.9258674)
(0.0044246944 0.0044205151 4.0094053)
(0.0021728144 0.0052461708 3.9258681)
(-0.0012296427 0.0041701917 3.6552113)
(0.012033058 -0.0021899424 4.2760004)
(0.015671382 0.0069514446 4.4161732)
(0.01360957 0.013605475 4.4391178)
(0.006956998 0.015670002 4.4161748)
(-0.0021841927 0.012033938 4.276002)
(0.024147694 -0.00085630855 4.4648713)
(0.027589645 0.012707339 4.4519262)
(0.021543764 0.021539457 4.4290163)
(0.012712412 0.027587403 4.4519279)
(-0.00085076857 0.024147762 4.4648736)
(-7.5716312e-06 8.8057955e-06 0.96364524)
(-7.3932443e-05 7.9128065e-05 1.0934087)
(-2.1253687e-05 -2.3812595e-05 1.1403407)
(8.2325977e-05 -7.5810796e-05 1.0934081)
(1.1486421e-05 -7.7706613e-06 0.96364288)
(0.00048488011 -0.00034466645 2.5441268)
(0.00049245104 0.0002736229 2.8161461)
(0.00040706455 0.00040230303 2.9110803)
(0.00028107299 0.00048992846 2.8161451)
(-0.00033814592 0.00048519579 2.5441229)
(0.0031836875 -0.00115168 3.6772021)
(0.0041358545 0.001630492 3.9553289)
(0.0034548753 0.0034496858 4.042189)
(0.0016389143 0.0041346174 3.9553281)
(-0.0011442211 0.0031847693 3.6771997)
(0.0097977762 -0.002067522 4.3235615)
(0.013057286 0.0056065039 4.4785056)
(0.011328847 0.011323454 4.5072011)
(0.0056140434 0.013055653 4.4785063)
(-0.0020604009 0.0097990279 4.3235613)
(0.020684099 -0.00090607025 4.5380539)
(0.024404847 0.011131883 4.5357814)
(0.019292196 0.019286287 4.5140836)
(0.011138988 0.024401998 4.5357826)
(-0.00089899892 0.020684438 4.538055)
(-1.700868e-06 7.9982538e-06 0.96413974)
(-7.0780887e-05 7.8233709e-05 1.0939935)
(-1.4842003e-05 -1.7245941e-05 1.1410218)
(8.0858499e-05 -7.2495776e-05 1.0939918)
(9.8359826e-06 -1.871385e-06 0.964136)
(0.0002515982 -0.00032833553 2.5511792)
(0.00022841951 0.000151082 2.8251872)
(0.00019036972 0.0001851821 2.9210821)
(0.0001582722 0.00022551234 2.8251846)
(-0.0003227653 0.00025177658 2.5511726)
(0.0023376528 -0.001080499 3.6989301)
(0.0031784503 0.0011795659 3.9839888)
(0.0026369321 0.0026310723 4.0739281)
(0.0011884372 0.0031765564 3.9839867)
(-0.0010732536 0.0023385546 3.6989248)
(0.0078943659 -0.0019604992 4.3691386)
(0.010823527 0.0044700168 4.5378589)
(0.009380505 0.0093743957 4.5720339)
(0.0044784538 0.010821516 4.5378586)
(-0.0019530689 0.0078956325 4.3691361)
(0.017624764 -0.0009722711 4.6083685)
(0.021490286 0.0097005104 4.6174791)
(0.017187782 0.017181072 4.5975864)
(0.0097085841 0.021487073 4.6174795)
(-0.00096470883 0.01762515 4.6083681)
(8.3753456e-06 8.7989312e-06 0.96494037)
(-6.4419955e-05 7.8707602e-05 1.0949256)
(-5.7945461e-06 -7.214709e-06 1.14205)
(8.0313285e-05 -6.55789e-05 1.0949229)
(9.7402254e-06 8.1668585e-06 0.96493587)
(6.3146355e-05 -0.00031178637 2.5585567)
(7.3562611e-06 4.7477806e-05 2.8344828)
(1.0606528e-05 6.0959986e-06 2.9312869)
(5.3503188e-05 4.6898301e-06 2.8344783)
(-0.00030764258 6.2904787e-05 2.558548)
(0.0016177564 -0.0010176101 3.7202127)
(0.0023464486 0.00079728037 4.0116954)
(0.0019356037 0.0019298616 4.1044823)
(0.00080565838 0.0023443456 4.0116915)
(-0.0010113702 0.0016182441 3.7202047)
(0.0062688539 -0.0018626444 4.4125927)
(0.0089008968 0.0035139115 4.5940732)
(0.0077106982 0.0077045333 4.6333884)
(0.0035223586 0.0088987757 4.5940715)
(-0.0018557731 0.0062699585 4.4125877)
(0.014951017 -0.0010285642 4.6753365)
(0.01883622 0.0084037506 4.6960122)
(0.015235897 0.015229066 4.678275)
(0.0084119808 0.018832963 4.6960115)
(-0.0010214241 0.01495141 4.6753341)
(-3.6618406e-06 6.3530116e-06 0.96596277)
(-7.5255328e-05 6.7930347e-05 1.0960996)
(-1.7839557e-05 -1.779727e-05 1.1433198)
(6.8240549e-05 -7.5509613e-05 1.0960967)
(6.5667145e-06 -3.6978414e-06 0.96595804)
(-0.00011439294 -0.00029825766 2.5662415)
(-0.0001987954 -4.7812516e-05 2.8440495)
(-0.00015897185 -0.00016176848 2.9417183)
(-4.3684277e-05 -0.00020059988 2.8440442)
(-0.00029580737 -0.0001149243 2.5662318)
(0.00099661204 -0.00096070509 3.7412625)
(0.0016227444 0.00047017714 4.0388021)
(0.0013310827 0.0013264387 4.1342567)
(0.00047706866 0.0016208753 4.0387971)
(-0.00095620631 0.00099622446 3.7412527)
(0.004873301 -0.0017674872 4.4545645)
(0.0072347052 0.0027028018 4.648061)
(0.0062678931 0.0062626 4.692257)
(0.0027101085 0.0072327766 4.6480581)
(-0.0017621467 0.0048736849 4.4545575)
(0.012565509 -0.0010696406 4.7399734)
(0.016408111 0.0072314864 4.7726496)
(0.013421505 0.01341561 4.7575311)
(0.0072385953 0.016405282 4.7726477)
(-0.0010640496 0.012565595 4.7399691)
(-2.8033772e-05 4.2134601e-06 0.96716206)
(-8.7055296e-05 5.7834334e-05 1.097465)
(-3.3258785e-05 -3.1850178e-05 1.1447777)
(5.6446071e-05 -8.6386336e-05 1.0974622)
(2.7580991e-06 -2.8026633e-05 0.96715785)
(-0.0002620405 -0.00028757616 2.5741166)
(-0.00037628034 -0.00013785693 2.8537172)
(-0.00031099138 -0.00031165612 2.9522005)
(-0.00013680399 -0.0003769722 2.8537114)
(-0.0002879557 -0.00026248746 2.5741071)
(0.00049768675 -0.00089427221 3.7618785)
(0.0010013123 0.00020408269 4.0650778)
(0.0008171786 0.00081431241 4.1630193)
(0.00020827787 0.00099994233 4.0650719)
(-0.00089236322 0.00049726141 3.761868)
(0.0036766827 -0.0016706436 4.4947762)
(0.0057964458 0.0020281958 4.6994868)
(0.0050337818 0.0050300275 4.7482533)
(0.002033424 0.0057949946 4.6994828)
(-0.0016675795 0.0036767069 4.4947678)
(0.010478868 -0.0010909059 4.8016843)
(0.014212636 0.0061860287 4.8462595)
(0.011757665 0.011753366 4.8339834)
(0.0061912385 0.01421055 4.8462564)
(-0.0010876476 0.010478732 4.8016783)
(-3.6337036e-05 6.2498075e-06 0.96852992)
(-9.4993161e-05 5.094661e-05 1.0990278)
(-4.4579942e-05 -4.1772986e-05 1.1464363)
(4.8210454e-05 -9.3561766e-05 1.0990255)
(3.8288476e-06 -3.6320915e-05 0.96852695)
(-0.0004194106 -0.00027837099 2.5822038)
(-0.0005358745 -0.00020819302 2.8635834)
(-0.00044028156 -0.00043833352 2.9628536)
(-0.00021021029 -0.00053533713 2.863578)
(-0.00028122434 -0.00042039178 2.5821961)
(3.1174602e-05 -0.000855638 3.7822743)
(0.00045927967 -4.0290582e-05 4.0908849)
(0.00037009892 0.00036966901 4.1911722)
(-3.937508e-05 0.00045869445 4.0908791)
(-0.00085671332 2.9797472e-05 3.7822644)
(0.0026431644 -0.0015868583 4.5338482)
(0.0045366834 0.0014409831 4.7492184)
(0.0039536595 0.0039521488 4.8023403)
(0.0014432332 0.0045359414 4.7492139)
(-0.0015867376 0.0026422762 4.5338393)
(0.0086399644 -0.0011060371 4.861574)
(0.012213304 0.0052385651 4.9182169)
(0.010219436 0.01021754 4.9091284)
(0.005240829 0.012212332 4.918213)
(-0.0011058318 0.0086393795 4.8615668)
(-4.2401663e-05 8.1265237e-06 0.97001666)
(-9.8467941e-05 4.5046618e-05 1.1007214)
(-4.9805062e-05 -4.5860863e-05 1.1482266)
(4.1165649e-05 -9.6356057e-05 1.1007198)
(4.9057363e-06 -4.2263706e-05 0.97001504)
(-0.00054696003 -0.00026667046 2.590352)
(-0.00066931616 -0.00026794213 2.8734621)
(-0.00055253416 -0.00054796183 2.9734864)
(-0.00027289315 -0.00066735945 2.8734574)
(-0.00027177426 -0.00054804725 2.5903468)
(-0.00036593614 -0.00081479448 3.8022291)
(-1.4355415e-05 -0.0002459567 4.1159449)
(-1.920921e-05 -1.6996185e-05 4.218441)
(-0.00024848625 -1.3778716e-05 4.1159393)
(-0.00081874868 -0.00036775474 3.8022214)
(0.0017468545 -0.0015028985 4.5714167)
(0.0034354895 0.00094612023 4.796796)
(0.0030213445 0.0030222958 4.8540003)
(0.00094511846 0.0034356328 4.7967911)
(-0.0015056944 0.0017453697 4.5714086)
(0.0070126421 -0.0011158735 4.9189193)
(0.010407626 0.0043905179 4.987297)
(0.0088107684 0.0088114691 4.9814911)
(0.0043896376 0.01040782 4.9872924)
(-0.0011187956 0.0070116901 4.9189117)
(-4.8146677e-05 1.0084213e-05 0.97163439)
(-0.00010138506 3.8609992e-05 1.102559)
(-5.4591959e-05 -4.9925143e-05 1.1501598)
(3.4015584e-05 -9.8833648e-05 1.1025582)
(6.4055829e-06 -4.7915267e-05 0.97163441)
(-0.00065263777 -0.00025467918 2.5986596)
(-0.0007844592 -0.00032346331 2.8834641)
(-0.00065028004 -0.00064350279 2.9842053)
(-0.00033089993 -0.00078126491 2.883461)
(-0.00026159962 -0.00065365688 2.5986575)
(-0.00071043871 -0.00077689212 3.8220191)
(-0.00043242099 -0.00042984276 4.140625)
(-0.00036918881 -0.00036439651 4.2452005)
(-0.00043566867 -0.00043076998 4.1406206)
(-0.00078362422 -0.00071283083 3.8220144)
(0.00095349441 -0.0014290905 4.6081128)
(0.0024534932 0.00051736724 4.8430683)
(0.0021929175 0.0021964373 4.904194)
(0.00051289112 0.0024545077 4.8430638)
(-0.0014349942 0.00095104737 4.6081062)
(0.0055512627 -0.0011277507 4.9748437)
(0.0087554055 0.0036230941 5.05499)
(0.0075114715 0.0075149539 5.052709)
(0.0036186293 0.008756851 5.0549852)
(-0.0011338443 0.0055497922 4.9748365)
(-5.2133129e-05 1.2814483e-05 0.97332745)
(-0.00010281738 3.426765e-05 1.1044827)
(-5.7048267e-05 -5.2055796e-05 1.1521852)
(2.9486572e-05 -0.00010021571 1.1044829)
(9.1612713e-06 -5.1751364e-05 0.97332891)
(-0.00073701439 -0.00024032463 2.6069608)
(-0.00088134127 -0.00036736129 2.8934183)
(-0.00073167585 -0.00072314428 2.9948696)
(-0.00037626442 -0.0008771568 2.8934165)
(-0.00024816377 -0.00073796897 2.6069621)
(-0.0010180949 -0.00074206267 3.8413536)
(-0.00080372561 -0.0005845091 4.1646132)
(-0.00066949883 -0.00066254163 4.2711954)
(-0.00059290564 -0.00080085966 4.1646098)
(-0.0007507478 -0.0010207592 3.8413528)
(0.000244531 -0.0013657921 4.643476)
(0.0015890244 0.00014438104 4.8874771)
(0.0014708354 0.0014765552 4.9522817)
(0.00013695383 0.0015909601 4.8874733)
(-0.0013739038 0.00024174105 4.6434724)
(0.0042513877 -0.0011369483 5.028495)
(0.0072671026 0.0029308497 5.1199558)
(0.0063196149 0.0063254089 5.1211897)
(0.0029235665 0.007269544 5.1199511)
(-0.0011453761 0.004249783 5.0284888)
(-5.6888079e-05 1.4498173e-05 0.97511715)
(-0.00010382584 2.7416439e-05 1.106512)
(-5.8757913e-05 -5.3988055e-05 1.1543092)
(2.2957823e-05 -0.00010138103 1.1065132)
(1.1093942e-05 -5.645402e-05 0.97511965)
(-0.00080947623 -0.00022829226 2.6153704)
(-0.00096381856 -0.0004116069 2.9034487)
(-0.00079749944 -0.00078795844 3.0055601)
(-0.00042091612 -0.00095901625 2.9034485)
(-0.00023650761 -0.00081043868 2.6153744)
(-0.0012869393 -0.00071071072 3.8605411)
(-0.0011312513 -0.00072867879 4.1882962)
(-0.00095274856 -0.0009441788 4.2967341)
(-0.00073858848 -0.0011272554 4.1882944)
(-0.0007206934 -0.0012896559 3.8605441)
(-0.00039160657 -0.0013131069 4.6781734)
(0.0008048197 -0.00018114013 4.930872)
(0.00081506125 0.00082250198 4.9992541)
(-0.00019061553 0.00080740008 4.9308693)
(-0.0013231321 -0.0003951059 4.6781723)
(0.0030788643 -0.0011471672 5.0810428)
(0.0059035763 0.0023068024 5.183805)
(0.0052312321 0.0052388704 5.1887205)
(0.002296865 0.0059068689 5.1838008)
(-0.0011576742 0.0030764578 5.0810385)
(-6.1108001e-05 1.6285953e-05 0.97695397)
(-0.00010511218 2.2310099e-05 1.1086001)
(-6.2020824e-05 -5.8175234e-05 1.1564943)
(1.8505447e-05 -0.00010284477 1.1086017)
(1.3273122e-05 -6.0746817e-05 0.97695758)
(-0.00087000642 -0.00021549217 2.6237296)
(-0.0010347926 -0.00044587639 2.9134061)
(-0.0008560021 -0.00084684439 3.0161597)
(-0.00045498016 -0.0010296457 2.9134073)
(-0.00022363029 -0.00087094972 2.6237366)
(-0.0015081755 -0.00067537373 3.8792778)
(-0.0014104187 -0.00084183355 4.2113706)
(-0.0011801513 -0.0011710396 4.3215979)
(-0.0008527141 -0.0014057077 4.2113703)
(-0.00068598214 -0.0015108554 3.8792848)
(-0.00095867497 -0.0012646371 4.7116576)
(0.00011961946 -0.00046199655 4.9725938)
(0.00024437041 0.00025256603 5.0443346)
(-0.00047305236 0.00012284334 4.9725919)
(-0.0012749125 -0.00096092045 4.7116604)
(0.0020172042 -0.0011665501 5.1315264)
(0.0046746187 0.0017352859 5.2450619)
(0.0042277219 0.0042362361 5.2535741)
(0.0017243397 0.0046781308 5.2450584)
(-0.0011769836 0.002015785 5.1315241)
(-6.5443469e-05 1.5366719e-05 0.9788691)
(-0.0001052371 1.6019168e-05 1.1107693)
(-6.3987438e-05 -6.1417015e-05 1.1587648)
(1.3155915e-05 -0.00010343076 1.1107707)
(1.3057024e-05 -6.5104736e-05 0.97887345)
(-0.00093294541 -0.00021122582 2.6321756)
(-0.0010972784 -0.00047955783 2.9234146)
(-0.0009069118 -0.00089915918 3.0268091)
(-0.0004875887 -0.0010920856 2.9234159)
(-0.00021851599 -0.00093332428 2.6321849)
(-0.0017170504 -0.00065520486 3.8979057)
(-0.0016562076 -0.00094640006 4.2341845)
(-0.001379357 -0.0013708211 4.3461758)
(-0.00095726998 -0.001651319 4.2341854)
(-0.00066549275 -0.0017187257 3.8979161)
(-0.0014261746 -0.0012103241 4.7446463)
(-0.00049471769 -0.00072277957 5.013514)
(-0.00026567917 -0.00025741954 5.0885333)
(-0.00073442365 -0.00049143647 5.0135137)
(-0.0012206649 -0.0014279344 4.7446526)
(0.0010888604 -0.0011402674 5.1811501)
(0.003542468 0.0012346533 5.3054556)
(0.0033055379 0.0033141154 5.3176828)
(0.0012230608 0.0035460256 5.3054528)
(-0.0011506195 0.0010876788 5.1811497)
(-6.7414516e-05 1.5668176e-05 0.98081793)
(-0.00010423243 1.1160235e-05 1.1129748)
(-6.509596e-05 -6.3678261e-05 1.1610695)
(9.3108171e-06 -0.00010322482 1.1129761)
(1.4445656e-05 -6.7184072e-05 0.98082246)
(-0.00098170282 -0.00020466776 2.6405607)
(-0.0011473977 -0.00050743855 2.9333211)
(-0.00094972667 -0.00094365529 3.0373276)
(-0.00051413523 -0.0011432403 2.9333224)
(-0.00021011887 -0.00098174268 2.640571)
(-0.0018980536 -0.00063419199 3.9161265)
(-0.0018731667 -0.0010379855 4.256403)
(-0.0015561639 -0.0015485786 4.3700559)
(-0.0010478566 -0.0018682979 4.256404)
(-0.00064277482 -0.0018987405 3.9161386)
(-0.0018425007 -0.0011598405 4.7765621)
(-0.0010397597 -0.00094948814 5.0529376)
(-0.00072221179 -0.00071471968 5.1310079)
(-0.00096050536 -0.001036434 5.0529375)
(-0.0011690239 -0.0018433212 4.7765703)
(0.00025840292 -0.0011117621 5.2288321)
(0.0025188096 0.00079127576 5.3633512)
(0.0024621128 0.0024700822 5.3791621)
(0.00078021116 0.0025220922 5.3633494)
(-0.0011208599 0.00025781026 5.2288335)
(-6.9644511e-05 1.5863958e-05 0.98282156)
(-0.00010520117 7.2619519e-06 1.1152355)
(-6.6981436e-05 -6.6525023e-05 1.1634392)
(6.5819659e-06 -0.00010495509 1.1152373)
(1.5838601e-05 -6.9509136e-05 0.98282586)
(-0.001022911 -0.00019924759 2.6489956)
(-0.0011894825 -0.00052826934 2.9432389)
(-0.00098756372 -0.00098302681 3.0478732)
(-0.00053327361 -0.001186932 2.9432419)
(-0.00020223024 -0.0010226002 2.649006)
(-0.0020543442 -0.00061713511 3.9342394)
(-0.0020595786 -0.0011121395 4.2783723)
(-0.0017117691 -0.0017048809 4.3936895)
(-0.0011203456 -0.0020553786 4.2783746)
(-0.00062311547 -0.0020544713 3.9342524)
(-0.0022217713 -0.0011251606 4.8080685)
(-0.0015576033 -0.0011701734 5.0917324)
(-0.0011362091 -0.0011292718 5.172855)
(-0.0011791096 -0.0015534634 5.0917338)
(-0.0011322167 -0.0022220415 4.8080782)
(-0.00051001501 -0.0010823818 5.275883)
(0.0015667382 0.00037997462 5.4206549)
(0.0016878521 0.0016942833 5.4401272)
(0.00037065407 0.001570165 5.4206537)
(-0.0010897981 -0.00050991529 5.2758861)
(-7.2417319e-05 1.8883279e-05 0.9848439)
(-0.00010847686 2.3498851e-06 1.117523)
(-6.8937379e-05 -6.9729891e-05 1.1658286)
(2.9745287e-06 -0.00010876726 1.1175248)
(1.9740157e-05 -7.2387589e-05 0.98484745)
(-0.0010608601 -0.00018835673 2.6573448)
(-0.0012402354 -0.0005545263 2.9530456)
(-0.0010225097 -0.0010202166 3.0582667)
(-0.00055697708 -0.0012386128 2.9530492)