/*--------------------------------*- C++ -*----------------------------------*\
| =========                 |                                                 |
| \\      /  F ield         | OpenFOAM: The Open Source CFD Toolbox           |
|  \\    /   O peration     | Version:  2.3.x                                 |
|   \\  /    A nd           | Web:      www.OpenFOAM.org                      |
|    \\/     M anipulation  |                                                 |
\*---------------------------------------------------------------------------*/
FoamFile
{
    version     2.0;
    format      ascii;
    class       volScalarField;
    location    "0.018";
    object      C;
}
// * * * * * * * * * * * * * * * * * * * * * * * * * * * * * * * * * * * * * //

dimensions      [0 -3 0 0 1 0 0];

internalField   nonuniform List<scalar> 
10000
(
1.6361434e-05
1.7481849e-05
1.7723573e-05
1.7481851e-05
1.6361436e-05
1.9541803e-05
2.0038538e-05
2.0170607e-05
2.0038536e-05
1.9541802e-05
2.0789005e-05
2.100211e-05
2.1055808e-05
2.10021e-05
2.0788991e-05
2.1169966e-05
2.124031e-05
2.1254268e-05
2.1240308e-05
2.1169962e-05
2.1270909e-05
2.1288723e-05
2.1291106e-05
2.1288723e-05
2.1270909e-05
1.9096609e-06
3.148823e-06
3.8617122e-06
3.1488195e-06
1.9096575e-06
1.0593261e-05
1.2708468e-05
1.3525758e-05
1.2708461e-05
1.0593247e-05
1.778701e-05
1.9306752e-05
1.9691983e-05
1.9306705e-05
1.7786948e-05
2.0459359e-05
2.0910754e-05
2.1002531e-05
2.091076e-05
2.0459363e-05
2.1109369e-05
2.1233769e-05
2.1251045e-05
2.1233771e-05
2.1109391e-05
2.5733752e-07
3.6173035e-07
4.2877914e-07
3.6173043e-07
2.5733753e-07
6.2657969e-06
8.0147952e-06
8.6522235e-06
8.0147898e-06
6.2657906e-06
1.4125681e-05
1.6234775e-05
1.6950349e-05
1.6234815e-05
1.4125719e-05
1.8957789e-05
2.0148288e-05
2.0415898e-05
2.0148329e-05
1.8957842e-05
2.0740944e-05
2.1104243e-05
2.1156354e-05
2.1104251e-05
2.0741024e-05
9.8553324e-08
1.2910903e-07
1.3922554e-07
1.2910956e-07
9.855439e-08
3.4161854e-06
5.2464974e-06
5.9098804e-06
5.2465145e-06
3.4162172e-06
1.1103665e-05
1.3589017e-05
1.4408936e-05
1.3589058e-05
1.1103719e-05
1.7104278e-05
1.8970871e-05
1.9435314e-05
1.8970907e-05
1.7104353e-05
2.004944e-05
2.0837708e-05
2.0960788e-05
2.0837725e-05
2.0049488e-05
4.8490222e-08
7.2573945e-08
8.1507701e-08
7.257428e-08
4.8490781e-08
1.806325e-06
3.2686819e-06
3.9206494e-06
3.2686976e-06
1.8063452e-06
8.7481699e-06
1.1284398e-05
1.2204189e-05
1.1284424e-05
8.7482153e-06
1.5233426e-05
1.7596627e-05
1.8255369e-05
1.759664e-05
1.5233462e-05
1.9133581e-05
2.0399425e-05
2.0632501e-05
2.0399418e-05
1.913357e-05
2.6048948e-08
4.1254454e-08
4.8624295e-08
4.1254633e-08
2.6049245e-08
1.0118107e-06
1.9398271e-06
2.4455616e-06
1.9398357e-06
1.0118218e-06
7.0324715e-06
9.4186301e-06
1.032332e-05
9.4186489e-06
7.0325087e-06
1.3556847e-05
1.619853e-05
1.7004569e-05
1.6198552e-05
1.3556887e-05
1.8101782e-05
1.9825539e-05
2.0186139e-05
1.9825563e-05
1.8101805e-05
1.5822363e-08
2.4142079e-08
2.8743073e-08
2.4142124e-08
1.582248e-08
6.3515307e-07
1.1755253e-06
1.4960688e-06
1.1755279e-06
6.3515776e-07
5.7445901e-06
7.9660398e-06
8.8138214e-06
7.9660514e-06
5.7446174e-06
1.2125824e-05
1.4881209e-05
1.578709e-05
1.4881219e-05
1.2125844e-05
1.7055596e-05
1.9168459e-05
1.9662569e-05
1.9168477e-05
1.7055605e-05
1.0617557e-08
1.5340784e-08
1.7899361e-08
1.534074e-08
1.0617561e-08
4.3716454e-07
7.6998561e-07
9.6034698e-07
7.6998397e-07
4.3716495e-07
4.7222302e-06
6.8187238e-06
7.609862e-06
6.8187256e-06
4.7222396e-06
1.0911563e-05
1.3683983e-05
1.4644069e-05
1.368398e-05
1.0911564e-05
1.6047008e-05
1.8464772e-05
1.9086621e-05
1.8464784e-05
1.604701e-05
7.5366781e-09
1.0606789e-08
1.2084576e-08
1.0606733e-08
7.5366511e-09
3.1648486e-07
5.4598445e-07
6.6555973e-07
5.4598201e-07
3.16484e-07
3.8765667e-06
5.8712339e-06
6.6221803e-06
5.8712328e-06
3.8765685e-06
9.8573495e-06
1.2599905e-05
1.3584327e-05
1.2599897e-05
9.8573478e-06
1.508812e-05
1.7732197e-05
1.8471591e-05
1.7732214e-05
1.5088133e-05
5.4918973e-09
7.7704076e-09
8.7491811e-09
7.7703449e-09
5.4918425e-09
2.3432951e-07
4.0825493e-07
4.9241966e-07
4.0825197e-07
2.3432742e-07
3.1631496e-06
5.055945e-06
5.7840268e-06
5.0559356e-06
3.1631378e-06
8.9298532e-06
1.1621633e-05
1.2607687e-05
1.1621613e-05
8.9298366e-06
1.4182908e-05
1.6984507e-05
1.7824008e-05
1.6984494e-05
1.4182892e-05
4.0696875e-09
5.8739312e-09
6.6136287e-09
5.8738844e-09
4.0696452e-09
1.7599928e-07
3.1389752e-07
3.7899328e-07
3.1389522e-07
1.7599759e-07
2.574094e-06
4.3354066e-06
5.0447837e-06
4.3353956e-06
2.5740808e-06
8.0917917e-06
1.0732676e-05
1.1713062e-05
1.0732657e-05
8.091777e-06
1.3332544e-05
1.6236563e-05
1.715794e-05
1.6236549e-05
1.3332532e-05
3.0515427e-09
4.5090737e-09
5.1188049e-09
4.5090307e-09
3.0515018e-09
1.335166e-07
2.4446331e-07
2.9784721e-07
2.444611e-07
1.3351489e-07
2.0909643e-06
3.6913231e-06
4.3804201e-06
3.6913065e-06
2.0909468e-06
7.3326659e-06
9.9261656e-06
1.0891595e-05
9.9261398e-06
7.332643e-06
1.2536511e-05
1.5500758e-05
1.6483919e-05
1.5500716e-05
1.2536473e-05
2.31351e-09
3.4953799e-09
4.009474e-09
3.495349e-09
2.3134829e-09
1.022716e-07
1.9190312e-07
2.3640098e-07
1.9190146e-07
1.0227042e-07
1.6998319e-06
3.1261594e-06
3.7780201e-06
3.1261422e-06
1.6998168e-06
6.6451064e-06
9.1847847e-06
1.0141544e-05
9.1847628e-06
6.6450857e-06
1.1793902e-05
1.4787734e-05
1.5815698e-05
1.4787695e-05
1.1793868e-05
1.774017e-09
2.7273949e-09
3.1625907e-09
2.7273699e-09
1.7739961e-09
7.914833e-08
1.5141565e-07
1.8865722e-07
1.5141425e-07
7.9147384e-08
1.3863597e-06
2.6348108e-06
3.239265e-06
2.6347916e-06
1.3863449e-06
6.0213215e-06
8.5004271e-06
9.4466437e-06
8.5004042e-06
6.0212954e-06
1.1100763e-05
1.4101783e-05
1.515944e-05
1.4101738e-05
1.1100721e-05
1.3760403e-09
2.1392763e-09
2.5055121e-09
2.139262e-09
1.3760309e-09
6.1906667e-08
1.1995923e-07
1.510314e-07
1.1995837e-07
6.19062e-08
1.1361942e-06
2.2128462e-06
2.7621734e-06
2.2128299e-06
1.1361841e-06
5.4536697e-06
7.8679088e-06
8.800682e-06
7.8678912e-06
5.4536458e-06
1.0453137e-05
1.3446658e-05
1.4521817e-05
1.3446632e-05
1.0453108e-05
1.0793999e-09
1.6867005e-09
1.9911882e-09
1.686694e-09
1.0793977e-09
4.8932209e-08
9.5446347e-08
1.2117064e-07
9.5445901e-08
4.8932059e-08
9.3646412e-07
1.8553361e-06
2.344646e-06
1.8553235e-06
9.3645799e-07
4.9355653e-06
7.2814314e-06
8.1986099e-06
7.2814166e-06
4.935541e-06
9.8458076e-06
1.2821757e-05
1.3904631e-05
1.2821745e-05
9.8457872e-06
8.5563146e-10
1.3378413e-09
1.5878583e-09
1.3378438e-09
8.556378e-10
3.9060187e-08
7.63421e-08
9.7468527e-08
7.6342155e-08
3.9060417e-08
7.7630636e-07
1.5562501e-06
1.984862e-06
1.5562444e-06
7.7630619e-07
4.4617473e-06
6.7366956e-06
7.6368841e-06
6.7366872e-06
4.461731e-06
9.2753549e-06
1.2228272e-05
1.3311844e-05
1.2228287e-05
9.2753544e-06
6.8469549e-10
1.0685913e-09
1.2718819e-09
1.0686004e-09
6.8470701e-10
3.1458717e-08
6.1452614e-08
7.8700107e-08
6.1453054e-08
3.1459192e-08
6.4702608e-07
1.3084133e-06
1.6792908e-06
1.3084149e-06
6.4703069e-07
4.0278805e-06
6.2295587e-06
7.1115815e-06
6.2295574e-06
4.0278742e-06
8.7375638e-06
1.1663821e-05
1.2742943e-05
1.1663857e-05
8.7375798e-06
5.5246861e-10
8.6022946e-10
1.0246646e-09
8.6024376e-10
5.5248449e-10
2.5534817e-08
4.9828114e-08
6.3875448e-08
4.9828871e-08
2.5535504e-08
5.4186038e-07
1.1041537e-06
1.4227957e-06
1.1041624e-06
5.4186982e-07
3.630562e-06
5.7568397e-06
6.6198926e-06
5.7568492e-06
3.630573e-06
8.2300156e-06
1.1128364e-05
1.2200109e-05
1.1128422e-05
8.2300534e-06
4.489586e-10
6.9820133e-10
8.3121807e-10
6.9821792e-10
4.4897607e-10
2.0863945e-08
4.0710918e-08
5.2170007e-08
4.0711832e-08
2.0864719e-08
4.5562703e-07
9.3596638e-07
1.2091262e-06
9.3597997e-07
4.5563933e-07
3.2668511e-06
5.3152177e-06
6.1586358e-06
5.315238e-06
3.2668792e-06
7.7492497e-06
1.0618582e-05
1.1681064e-05
1.0618654e-05
7.7493047e-06
3.6703683e-10
5.7117066e-10
6.7926995e-10
5.7118782e-10
3.6705519e-10
1.7142828e-08
3.3509072e-08
4.2903229e-08
3.351004e-08
1.7143654e-08
3.844101e-07
7.9707551e-07
1.0316275e-06
7.9709233e-07
3.8442455e-07
2.9344107e-06
4.9021957e-06
5.7253686e-06
4.9022285e-06
2.9344585e-06
7.2937056e-06
1.0134031e-05
1.1186801e-05
1.0134115e-05
7.2937794e-06
3.0164298e-10
4.706928e-10
5.5923748e-10
4.7070889e-10
3.016604e-10
1.415492e-08
2.7773612e-08
3.5531812e-08
2.7774528e-08
1.4155707e-08
3.2518158e-07
6.8177829e-07
8.8408657e-07
6.8179581e-07
3.2519623e-07
2.6310288e-06
4.5152432e-06
5.3174095e-06
4.5152867e-06
2.6310908e-06
6.8605993e-06
9.6710244e-06
1.0713891e-05
9.6711111e-06
6.8606858e-06
2.4892063e-10
3.9054184e-10
4.6388499e-10
3.9055595e-10
2.4893628e-10
1.1732381e-08
2.3169209e-08
2.9638782e-08
2.3170023e-08
1.1733094e-08
2.7567107e-07
5.8534556e-07
7.6083167e-07
5.8536218e-07
2.7568505e-07
2.35494e-06
4.1527199e-06
4.9329226e-06
4.1527722e-06
2.3550145e-06
6.4491628e-06
9.2294064e-06
1.0263023e-05
9.2294909e-06
6.4492602e-06
2.0617985e-10
3.2582583e-10
3.8722673e-10
3.2583753e-10
2.0619346e-10
9.7581994e-09
1.9428236e-08
2.4871314e-08
1.9428918e-08
9.7588265e-09
2.3418103e-07
5.0415198e-07
6.5724002e-07
5.0416677e-07
2.3419416e-07
2.1044055e-06
3.8128021e-06
4.5698034e-06
3.8128595e-06
2.1044814e-06
6.0571467e-06
8.8054806e-06
9.8301987e-06
8.8055583e-06
6.0572485e-06
1.7134511e-10
2.7304083e-10
3.2500417e-10
2.7304938e-10
1.7135626e-10
8.1413344e-09
1.6358978e-08
2.0978827e-08
1.6359478e-08
8.1418553e-09
1.993068e-07
4.3529604e-07
5.6964297e-07
4.3530784e-07
1.9931816e-07
1.8776281e-06
3.4946362e-06
4.2269696e-06
3.4946948e-06
1.8777011e-06
5.6842345e-06
8.3996923e-06
9.4163602e-06
8.399759e-06
5.6843362e-06
1.428013e-10
2.2972359e-10
2.7394831e-10
2.2973e-10
1.4280957e-10
6.8102354e-09
1.3826212e-08
1.7766622e-08
1.3826593e-08
6.810626e-09
1.698756e-07
3.7668489e-07
4.9489151e-07
3.7669508e-07
1.6988443e-07
1.6729313e-06
3.1968106e-06
3.9029737e-06
3.1968651e-06
1.6729934e-06
5.3286693e-06
8.0083856e-06
9.0172229e-06
8.0084407e-06
5.328765e-06
1.1929155e-10
1.9394486e-10
2.3192936e-10
1.9394899e-10
1.1929757e-10
5.7090636e-09
1.1723135e-08
1.5108975e-08
1.1723388e-08
5.7093493e-09
1.4495988e-07
3.2657542e-07
4.3111252e-07
3.2658298e-07
1.449666e-07
1.4886776e-06
2.9187413e-06
3.5971323e-06
2.9187864e-06
1.4887306e-06
4.9907313e-06
7.6328157e-06
8.6343131e-06
7.6328558e-06
4.9908173e-06
9.9891864e-11
1.6416775e-10
1.9700122e-10
1.6417018e-10
9.9895501e-11
4.7966143e-09
9.9637939e-09
1.2888189e-08
9.9639499e-09
4.7967892e-09
1.2385742e-07
2.8345346e-07
3.7617516e-07
2.8345886e-07
1.2386177e-07
1.3234228e-06
2.6595389e-06
3.3083858e-06
2.6595761e-06
1.3234622e-06
4.6685851e-06
7.2691882e-06
8.2632437e-06
7.2692177e-06
4.6686567e-06
8.382974e-11
1.3926119e-10
1.6774855e-10
1.392624e-10
8.3831299e-11
4.0382063e-09
8.4850941e-09
1.1018933e-08
8.4851731e-09
4.0382831e-09
1.0595581e-07
2.4624175e-07
3.2859175e-07
2.4624462e-07
1.0595792e-07
1.1756324e-06
2.4191962e-06
3.036973e-06
2.4192193e-06
1.1756557e-06
4.3628187e-06
6.9195389e-06
7.9061778e-06
6.9195538e-06
4.3628679e-06
7.0491765e-11
1.1831704e-10
1.4311487e-10
1.1831755e-10
7.0491894e-11
3.4060678e-09
7.2357853e-09
9.4371519e-09
7.2358184e-09
3.4060769e-09
9.073954e-08
2.1399396e-07
2.8720325e-07
2.1399519e-07
9.0740075e-08
1.0434982e-06
2.1962031e-06
2.7820982e-06
2.1962184e-06
1.0435091e-06
4.0714402e-06
6.5802484e-06
7.5586428e-06
6.5802568e-06
4.0714717e-06
5.9393884e-11
1.0070107e-10
1.2229107e-10
1.0070047e-10
5.9392931e-11
2.878239e-09
6.1803825e-09
8.0938525e-09
6.1803489e-09
2.8781957e-09
7.7799635e-08
1.8610296e-07
2.5113964e-07
1.8610242e-07
7.7798816e-08
9.257645e-07
1.9910786e-06
2.5439996e-06
1.9910818e-06
9.257629e-07
3.7955188e-06
6.2541191e-06
7.2236012e-06
6.2541154e-06
3.7955265e-06
5.012948e-11
8.5818984e-11
1.0463302e-10
8.5817877e-11
5.0128088e-11
2.4361076e-09
5.2849941e-09
6.9497012e-09
5.2849303e-09
2.4360427e-09
6.6767673e-08
1.6189972e-07
2.1965475e-07
1.6189833e-07
6.6766241e-08
8.2076016e-07
1.8022487e-06
2.3218656e-06
1.8022449e-06
8.2075154e-07
3.5328977e-06
5.9371879e-06
6.8967096e-06
5.9371796e-06
3.5328914e-06
4.2388622e-11
7.3239909e-11
8.9636213e-11
7.3238491e-11
4.2386907e-11
2.0654988e-09
4.5251836e-09
5.9739433e-09
4.5250992e-09
2.0654175e-09
5.736642e-08
1.4092718e-07
1.9218275e-07
1.4092505e-07
5.736448e-08
7.2747105e-07
1.6296007e-06
2.1160816e-06
1.6295892e-06
7.2745551e-07
3.2849751e-06
5.6326491e-06
6.5814779e-06
5.6326321e-06
3.2849491e-06
3.5894747e-11
6.2572219e-11
7.6861278e-11
6.257097e-11
3.5893154e-11
1.7536106e-09
3.8783153e-09
5.1393527e-09
3.8782401e-09
1.7535344e-09
4.9326561e-08
1.2270287e-07
1.6815525e-07
1.2270088e-07
4.9324675e-08
6.4437408e-07
1.4714803e-06
1.9252577e-06
1.4714673e-06
6.4435731e-07
3.0493346e-06
5.3363199e-06
6.2731177e-06
5.3363038e-06
3.0493031e-06
3.0448681e-11
5.3537141e-11
6.5988587e-11
5.3535931e-11
3.0447123e-11
1.4912728e-09
3.328454e-09
4.4263235e-09
3.32838e-09
1.4911977e-09
4.2461999e-08
1.0691578e-07
1.4719982e-07
1.0691372e-07
4.246007e-08
5.7071505e-07
1.3278359e-06
1.7498058e-06
1.3278195e-06
5.7069604e-07
2.8276882e-06
5.0522323e-06
5.9759906e-06
5.052209e-06
2.8276446e-06
2.5859207e-11
4.5852618e-11
5.6700219e-11
4.5851663e-11
2.5858036e-11
1.2695492e-09
2.8591004e-09
3.8148847e-09
2.8590417e-09
1.2694925e-09
3.6574093e-08
9.3186125e-08
1.2886087e-07
9.3184448e-08
3.6572605e-08
5.0515457e-07
1.1968492e-06
1.5879842e-06
1.1968352e-06
5.0513909e-07
2.6175122e-06
4.7757818e-06
5.684763e-06
4.7757636e-06
2.6174743e-06
2.1997039e-11
3.9329707e-11
4.8786877e-11
3.9328835e-11
2.1996031e-11
1.0824559e-09
2.4593795e-09
3.2921535e-09
2.4593254e-09
1.0824068e-09
3.1537681e-08
8.1292045e-08
1.1288879e-07
8.1290439e-08
3.1536352e-08
4.4714637e-07
1.0784466e-06
1.4403046e-06
1.0784316e-06
4.4713143e-07
2.4206587e-06
4.5114414e-06
5.4050028e-06
4.5114183e-06
2.4206156e-06
1.8726203e-11
3.3760237e-11
4.2004297e-11
3.3759679e-11
1.8725571e-11
9.2357145e-10
2.1169386e-09
2.8425466e-09
2.1169037e-09
9.2354055e-10
2.7201875e-08
7.0925985e-08
9.88928e-08
7.0924924e-08
2.7201023e-08
3.9548222e-07
9.7069148e-07
1.3045979e-06
9.7068107e-07
3.9547223e-07
2.2342382e-06
4.2540298e-06
5.1303028e-06
4.2540161e-06
2.2342085e-06
1.5965518e-11
2.9027391e-11
3.6220019e-11
2.902692e-11
1.5964987e-11
7.8913058e-10
1.8250467e-09
2.4578968e-09
1.8250171e-09
7.8910441e-10
2.3487089e-08
6.195113e-08
8.6715633e-08
6.1950193e-08
2.3486349e-08
3.4984015e-07
8.7373249e-07
1.1814729e-06
8.7372236e-07
3.4983088e-07
2.0604426e-06
4.0088982e-06
4.8672737e-06
4.0088808e-06
2.0604102e-06
1.3616142e-11
2.4971378e-11
3.1245673e-11
2.4971145e-11
1.3615881e-11
6.7442035e-10
1.5740995e-09
2.1260123e-09
1.5740848e-09
6.7440746e-10
2.0276863e-08
5.4110354e-08
7.6025505e-08
5.4109878e-08
2.0276493e-08
3.0913901e-07
7.8555601e-07
1.0685421e-06
7.8555065e-07
3.0913416e-07
1.8960437e-06
3.770103e-06
4.6085855e-06
3.7700961e-06
1.8960264e-06
1.1629473e-11
2.1520253e-11
2.7000795e-11
2.1520045e-11
1.1629233e-11
5.7719418e-10
1.359975e-09
1.8419719e-09
1.3599617e-09
5.7718227e-10
1.752459e-08
4.7323688e-08
6.6734817e-08
4.7323246e-08
1.7524242e-08
2.7325715e-07
7.065126e-07
9.6660104e-07
7.0650717e-07
2.7325236e-07
1.7436126e-06
3.5438024e-06
4.3620089e-06
3.5437912e-06
1.7435924e-06
9.9305189e-12
1.8547878e-11
2.3334271e-11
1.8547814e-11
9.9304403e-12
4.9384122e-10
1.1749936e-09
1.5958595e-09
1.1749895e-09
4.9383734e-10
1.5136601e-08
4.1371637e-08
5.855301e-08
4.1371497e-08
1.5136488e-08
2.4120067e-07
6.3454274e-07
8.7308473e-07
6.3454093e-07
2.4119903e-07
1.5995115e-06
3.3231414e-06
4.1190716e-06
3.3231397e-06
1.5995043e-06
8.4926077e-12
1.6016326e-11
2.020402e-11
1.6016237e-11
8.492493e-12
4.2314406e-10
1.0170361e-09
1.38518e-09
1.0170305e-09
4.2313838e-10
1.3089656e-08
3.622178e-08
5.1449658e-08
3.6221586e-08
1.3089489e-08
2.1301262e-07
5.7024712e-07
7.890393e-07
5.7024448e-07
2.1301022e-07
1.4667037e-06
3.1152363e-06
3.8887788e-06
3.1152291e-06
1.4666917e-06
7.2570947e-12
1.3824219e-11
1.7486539e-11
1.3824206e-11
7.2570649e-12
3.622525e-10
8.7985697e-10
1.2017271e-09
8.7985619e-10
3.622511e-10
1.1306451e-08
3.1684837e-08
4.5168333e-08
3.1684812e-08
1.1306414e-08
1.8777253e-07
5.1156603e-07
7.1180102e-07
5.1156567e-07
1.8777201e-07
1.3411683e-06
2.9122808e-06
3.6614361e-06
2.9122806e-06
1.3411655e-06
6.2115813e-12
1.1956674e-11
1.5166484e-11
1.1956611e-11
6.2114921e-12
3.106235e-10
7.6270817e-10
1.0447171e-09
7.6270421e-10
3.1061912e-10
9.7796383e-09
2.7763012e-08
3.9722056e-08
2.776288e-08
9.7795127e-09
1.6565029e-07
4.593307e-07
6.4267647e-07
4.5932888e-07
1.6564851e-07
1.2262354e-06
2.7223496e-06
3.4473381e-06
2.7223425e-06
1.2262258e-06
5.3089268e-12
1.0330112e-11
1.3140704e-11
1.0330085e-11
5.3088803e-12
2.6594584e-10
6.6038457e-10
9.0721685e-10
6.6038291e-10
2.6594362e-10
8.4439613e-09
2.4290239e-08
3.4881653e-08
2.4290189e-08
8.4439017e-09
1.4578812e-07
4.1149907e-07
5.7895223e-07
4.1149844e-07
1.4578735e-07
1.1175444e-06
2.5366692e-06
3.2355163e-06
2.5366663e-06
1.1175402e-06
4.5460041e-12
8.9451681e-12
1.1412224e-11
8.94509e-12
4.5459012e-12
2.2811643e-10
5.7306897e-10
7.8962996e-10
5.7306406e-10
2.2811137e-10
7.3027295e-09
2.12934e-08
3.0692263e-08
2.1293236e-08
7.302583e-09
1.2844901e-07
3.6909756e-07
5.221754e-07
3.6909529e-07
1.2844692e-07
1.0187519e-06
2.3642454e-06
3.0375542e-06
2.3642352e-06
1.0187402e-06
3.884124e-12
7.7315637e-12
9.8934325e-12
7.7315016e-12
3.8840446e-12
1.952232e-10
4.9634154e-10
6.8600804e-10
4.9633766e-10
1.9521933e-10
6.2999851e-09
1.8625008e-08
2.6947601e-08
1.862488e-08
6.2998739e-09
1.1283244e-07
3.3011621e-07
4.6962006e-07
3.3011445e-07
1.1283088e-07
9.2521805e-07
2.195369e-06
2.8412125e-06
2.1953605e-06
9.2520919e-07
3.3260105e-12
6.7000217e-12
8.5996336e-12
6.6999205e-12
3.3258904e-12
1.6744154e-10
4.3099391e-10
5.9755424e-10
4.3098749e-10
1.6743559e-10
5.4459249e-09
1.6328736e-08
2.3715484e-08
1.6328515e-08
5.445748e-09
9.9265823e-08
2.9573382e-07
4.2303555e-07
2.9573064e-07
9.9263188e-08
8.4087303e-07
2.0399179e-06
2.6593231e-06
2.0399025e-06
8.408574e-07
2.8393724e-12
5.7903959e-12
7.4552243e-12
5.7903048e-12
2.8392697e-12
1.4316419e-10
3.7321043e-10
5.1908916e-10
3.7320466e-10
1.4315911e-10
4.6920056e-09
1.4272191e-08
2.080863e-08
1.4271991e-08
4.6918533e-09
8.7002788e-08
2.639827e-07
3.7970905e-07
2.6397973e-07
8.7000478e-08
7.6087111e-07
1.8873076e-06
2.4784144e-06
1.8872926e-06
7.6085692e-07
2.4304548e-12
5.0195957e-12
6.4831829e-12
5.0194819e-12
2.4303298e-12
1.2273415e-10
3.2415716e-10
4.5231782e-10
3.241499e-10
1.2272792e-10
4.0526072e-09
1.2509632e-08
1.830962e-08
1.2509375e-08
4.0524168e-09
7.6411325e-08
2.3614896e-07
3.4154308e-07
2.3614502e-07
7.6408336e-08
6.893529e-07
1.748198e-06
2.3124836e-06
1.7481777e-06
6.8933379e-07
2.0720099e-12
4.3354031e-12
5.6173863e-12
4.3352998e-12
2.0719013e-12
1.0478667e-10
2.804961e-10
3.926746e-10
2.8048949e-10
1.0478124e-10
3.4853485e-09
1.0921249e-08
1.6047303e-08
1.0921011e-08
3.4851808e-09
6.6797948e-08
2.1031535e-07
3.0585666e-07
2.1031158e-07
6.6795246e-08
6.2134333e-07
1.6112241e-06
2.1469026e-06
1.6112036e-06
6.2132527e-07
1.7722265e-12
3.7582148e-12
4.8852154e-12
3.7581034e-12
1.7721108e-12
8.9756715e-11
2.4360397e-10
3.4215255e-10
2.435968e-10
8.9750904e-11
3.0068703e-09
9.5673132e-09
1.4112917e-08
9.567052e-09
3.0066884e-09
5.8551924e-08
1.8783547e-07
2.7465624e-07
1.8783123e-07
5.8548923e-08
5.6112573e-07
1.4877194e-06
1.9967234e-06
1.4876958e-06
5.6110501e-07
1.5079581e-12
3.2423041e-12
4.2283046e-12
3.2422045e-12
1.5078583e-12
7.6478549e-11
2.1053804e-10
2.9669376e-10
2.1053162e-10
7.6473528e-11
2.5800696e-09
8.339023e-09
1.2349472e-08
8.3387851e-09
2.5799104e-09
5.103221e-08
1.6685281e-07
2.4530982e-07
1.6684881e-07
5.1029511e-08
5.0367164e-07
1.3656507e-06
1.8462631e-06
1.3656273e-06
5.0365213e-07
1.288274e-12
2.8097112e-12
3.6761321e-12
2.8096135e-12
1.2881766e-12
6.5427815e-11
1.8277287e-10
2.5842699e-10
1.8276654e-10
6.5422896e-11
2.2224954e-09
7.2993353e-09
1.0852236e-08
7.2990984e-09
2.2223379e-09
4.4634118e-08
1.4875407e-07
2.1988237e-07
1.4875e-07
4.4631401e-08
4.5333842e-07
1.2569062e-06
1.7114943e-06
1.2568818e-06
4.5331822e-07
1.0934329e-12
2.420123e-12
3.1768306e-12
2.4200375e-12
1.0933502e-12
5.5605422e-11
1.5769879e-10
2.2372428e-10
1.5769324e-10
5.5601234e-11
1.9016429e-09
6.3492083e-09
9.4769079e-09
6.3489973e-09
1.9015072e-09
3.8768333e-08
1.3175127e-07
1.9580577e-07
1.3174753e-07
3.876593e-08
4.0511378e-07
1.1489064e-06
1.5758049e-06
1.1488827e-06
4.0509511e-07
9.326806e-13
2.0959721e-12
2.7604074e-12
2.0958935e-12
9.3260481e-13
4.7493493e-11
1.368109e-10
1.9474546e-10
1.3680578e-10
4.7489645e-11
1.6350358e-09
5.5519017e-09
8.3194239e-09
5.5517054e-09
1.6349102e-09
3.3824553e-08
1.1723602e-07
1.7516491e-07
1.1723248e-07
3.3822296e-08
3.6336401e-07
1.0539719e-06
1.4559456e-06
1.053949e-06
3.6334604e-07
7.8915423e-13
1.8015933e-12
2.380607e-12
1.8015261e-12
7.8909094e-13
4.0234941e-11
1.1778832e-10
1.6823763e-10
1.1778392e-10
4.023172e-11
1.394231e-09
4.8172536e-09
7.2471602e-09
4.8170828e-09
1.3941246e-09
2.9264283e-08
1.0349673e-07
1.5546995e-07
1.0349355e-07
2.9262324e-08
3.2315592e-07
9.5910853e-07
1.3345156e-06
9.590869e-07
3.2313967e-07
6.7182362e-13
1.5589949e-12
2.0669267e-12
1.558936e-12
6.7176834e-13
3.4296282e-11
1.0209591e-10
1.4632181e-10
1.0209205e-10
3.4293462e-11
1.1961046e-09
4.2071872e-09
6.3543554e-09
4.2070361e-09
1.1960109e-09
2.5463043e-08
9.1907719e-08
1.3879376e-07
9.1904863e-08
2.5461296e-08
2.8880579e-07
8.7694868e-07
1.228896e-06
8.7692874e-07
2.8879096e-07
5.6628919e-13
1.3365711e-12
1.7780213e-12
1.3365218e-12
5.6624379e-13
2.8942804e-11
8.7667255e-11
1.2607629e-10
8.7664016e-11
2.8940482e-11
1.0158289e-09
3.639717e-09
5.5192028e-09
3.6395884e-09
1.0157509e-09
2.1931859e-08
8.0840252e-08
1.2273656e-07
8.0837753e-08
2.1930372e-08
2.5551402e-07
7.942163e-07
1.1210532e-06
7.9419806e-07
2.5550092e-07
4.8096649e-13
1.1553892e-12
1.5422337e-12
1.1553475e-12
4.8092825e-13
2.4611775e-11
7.5904625e-11
1.0953966e-10
7.5901884e-11
2.4609817e-11
8.6923521e-10
3.1743331e-09
4.8327012e-09
3.1742235e-09
8.6916907e-10
1.9026018e-08
7.1634332e-08
1.0933561e-07
7.163217e-08
1.9024742e-08
2.2749547e-07
7.237403e-07
1.0288595e-06
7.2372411e-07
2.2748397e-07
4.0358203e-13
9.8743757e-13
1.3226003e-12
9.8740342e-13
4.0355108e-13
2.0674785e-11
6.4968719e-11
9.4088258e-11
6.4966464e-11
2.0673196e-11
7.3472901e-10
2.736641e-09
4.183211e-09
2.7365497e-09
7.3467481e-10
1.6304407e-08
6.274922e-08
9.62916e-08
6.2747373e-08
1.630334e-08
2.0013009e-07
6.5209226e-07
9.3379935e-07
6.5207786e-07
2.0012014e-07
3.4184071e-13
8.5252778e-13
1.1459059e-12
8.5249967e-13
3.4181535e-13
1.7532159e-11
5.6179314e-11
8.165057e-11
5.6177455e-11
1.7530855e-11
6.2686438e-10
2.3829854e-09
3.6574432e-09
2.3829097e-09
6.2681968e-10
1.4098082e-08
5.5477645e-08
8.5587048e-08
5.5476088e-08
1.4097191e-08
1.7748789e-07
5.9218728e-07
8.5409879e-07
5.9217483e-07
1.7747941e-07
2.8531097e-13
7.2585049e-13
9.791167e-13
7.2582783e-13
2.8529068e-13
1.4648102e-11
4.7900923e-11
6.9872271e-11
4.789942e-11
1.4647057e-11
5.2693776e-10
2.0460263e-09
3.1533058e-09
2.0459644e-09
5.269016e-10
1.2011688e-08
4.8370213e-08
7.5030931e-08
4.8368911e-08
1.2010954e-08
1.5516502e-07
5.3056649e-07
7.7091273e-07
5.3055567e-07
1.551578e-07
2.4091587e-13
6.2579105e-13
8.4723395e-13
6.257727e-13
2.4089955e-13
1.2382501e-11
4.1359943e-11
6.0556143e-11
4.1358725e-11
1.2381659e-11
4.481152e-10
1.7785406e-09
2.7525811e-09
1.7784901e-09
4.4808592e-10
1.0349757e-08
4.2662995e-08
6.6536759e-08
4.2661913e-08
1.0349155e-08
1.3705239e-07
4.8012998e-07
7.0269357e-07
4.8012074e-07
1.3704635e-07
1.9981836e-13
5.3039341e-13
7.2075656e-13
5.3037883e-13
1.998054e-13
1.0280138e-11
3.5103646e-11
5.1591602e-11
3.5102676e-11
1.0279469e-11
3.7426707e-10
1.5197109e-09
2.3621168e-09
1.5196702e-09
3.742436e-10
8.7600835e-09
3.6999107e-08
5.8026943e-08
3.6998218e-08
8.7595932e-09
1.1898816e-07
4.274953e-07
6.3040785e-07
4.2748742e-07
1.1898308e-07
1.6814641e-13
4.5655838e-13
6.2281824e-13
4.5654662e-13
1.6813608e-13
8.6598372e-12
3.0261253e-11
4.4649782e-11
3.0260469e-11
8.6593037e-12
3.171474e-10
1.3185706e-09
2.0584733e-09
1.3185375e-09
3.171286e-10
7.5197789e-09
3.2552328e-08
5.1336796e-08
3.2551591e-08
7.519381e-09
1.0466028e-07
3.854646e-07
5.7262595e-07
3.8545786e-07
1.0465606e-07
1.3844614e-13
3.8485715e-13
5.2707253e-13
3.8484791e-13
1.3843799e-13
7.1366071e-12
2.5542802e-11
3.7839013e-11
2.5542185e-11
7.1361853e-12
2.6291813e-10
1.1202658e-09
1.7567637e-09
1.1202395e-09
2.6290316e-10
6.3170901e-09
2.8056797e-08
4.4503224e-08
2.8056199e-08
6.3167683e-09
9.016788e-08
3.40812e-07
5.1023826e-07
3.4080632e-07
9.0164366e-08
1.1608111e-13
3.3073282e-13
4.548111e-13
3.307253e-13
1.1607462e-13
5.9897819e-12
2.1982016e-11
3.2700432e-11
2.1981514e-11
5.9894456e-12
2.2196612e-10
9.7011553e-10
1.5283318e-09
9.7009393e-10
2.2195412e-10
5.4019541e-09
2.4622095e-08
3.9279506e-08
2.4621595e-08
5.4016926e-09
7.8980047e-08
3.0618612e-07
4.6185883e-07
3.061812e-07
7.8977112e-08
9.4761255e-14
2.7696198e-13
3.8246076e-13
2.7695611e-13
9.4756151e-14
4.8936698e-12
1.8431609e-11
2.7535717e-11
1.8431217e-11
4.8934053e-12
1.8242169e-10
8.1860622e-10
1.2957619e-09
8.1858919e-10
1.8241219e-10
4.4987882e-09
2.1068519e-08
3.3812868e-08
2.1068116e-08
4.498578e-09
6.7452077e-08
2.6856133e-07
4.0836431e-07
2.685572e-07
6.7449652e-08
7.9162837e-14
2.3763709e-13
3.2959993e-13
2.3763225e-13
7.9158746e-14
4.0920887e-12
1.5836741e-11
2.376499e-11
1.5836417e-11
4.0918766e-12
1.5343517e-10
7.0758527e-10
1.1255014e-09
7.0757108e-10
1.534275e-10
3.8325643e-09
1.8444214e-08
2.9777529e-08
1.8443872e-08
3.8323924e-09
5.8844171e-08
2.4042253e-07
3.6840023e-07
2.4041891e-07
5.8842131e-08
6.396296e-14
1.9739687e-13
2.7501146e-13
1.9739313e-13
6.3959783e-14
3.3087806e-12
1.3170967e-11
1.9854684e-11
1.3170716e-11
3.3086157e-12
1.2480109e-10
5.9212722e-10
9.4659315e-10
5.9211613e-10
1.2479508e-10
3.1592524e-09
1.5645853e-08
2.5418918e-08
1.5645579e-08
3.1591157e-09
4.9748343e-08
2.0891997e-07
3.2280124e-07
2.0891693e-07
4.9746675e-08
5.3259518e-14
1.6918128e-13
2.3680816e-13
1.6917815e-13
5.3256966e-14
2.7576601e-12
1.1303919e-11
1.7121475e-11
1.1303709e-11
2.7575275e-12
1.046245e-10
5.1112242e-10
8.2131209e-10
5.1111307e-10
1.0461965e-10
2.6825415e-09
1.3669854e-08
2.2345665e-08
1.3669619e-08
2.6824292e-09
4.3247149e-08
1.8644891e-07
2.9035005e-07
1.8644622e-07
4.3245739e-08
4.2484755e-14
1.3908983e-13
1.9562646e-13
1.3908746e-13
4.2482826e-14
2.2011309e-12
9.3039555e-12
1.4161376e-11
9.3037962e-12
2.2010305e-12
8.4010726e-11
4.2324164e-10
6.8376262e-10
4.2323444e-10
8.4007017e-11
2.1835251e-09
1.1471281e-08
1.8876599e-08
1.1471095e-08
2.1834378e-09
3.6115851e-08
1.6019528e-07
2.5164448e-07
1.6019306e-07
3.6114722e-08
3.5317347e-14
1.1924688e-13
1.6854536e-13
1.1924492e-13
3.5315816e-14
1.8314563e-12
7.9875848e-12
1.2218663e-11
7.9874527e-12
1.8313765e-12
7.0313429e-11
3.6536355e-10
5.9342797e-10
3.6535752e-10
7.0310456e-11
1.8510072e-09
1.0016365e-08
1.6586425e-08
1.0016207e-08
1.8509361e-09
3.1335121e-08
1.4269975e-07
2.2593909e-07
1.4269779e-07
3.1334175e-08
2.7677902e-14
9.6647381e-14
1.373293e-13
9.6645969e-14
2.7676809e-14
1.4359763e-12
6.4806224e-12
9.9671159e-12
6.4805265e-12
1.4359192e-12
5.5469444e-11
2.982048e-10
4.8720756e-10
2.9820032e-10
5.5467291e-11
1.4810518e-09
8.2838863e-09
1.3816235e-08
8.2837646e-09
1.4809991e-09
2.5744605e-08
1.2080745e-07
1.9306038e-07
1.2080586e-07
2.5743877e-08
2.3105361e-14
8.324949e-14
1.1887341e-13
8.3248371e-14
2.3104525e-14
1.1998802e-12
5.5900361e-12
8.6402818e-12
5.5899596e-12
1.1998365e-12
4.6619716e-11
2.585588e-10
4.2467539e-10
2.5855517e-10
4.6618044e-11
1.2603565e-09
7.2584604e-09
1.2180364e-08
7.2583589e-09
1.2603146e-09
2.2400512e-08
1.0780061e-07
1.7358541e-07
1.0779924e-07
2.2399914e-08
1.754476e-14
6.5861646e-14
9.4643634e-14
6.5860933e-14
1.7544239e-14
9.1131822e-13
4.4266788e-12
6.8864659e-12
4.4266296e-12
9.1129084e-13
3.5647054e-11
2.0600713e-10
3.4072951e-10
2.0600468e-10
3.5645983e-11
9.791226e-10
5.8631093e-09
9.9210014e-09
5.8630366e-09
9.7909463e-10
1.7921023e-08
8.9232041e-08
1.4521593e-07
8.9230995e-08
1.7920601e-08
1.5095683e-14
5.800834e-14
8.3664344e-14
5.8007819e-14
1.5095306e-14
7.8501156e-13
3.9043589e-12
6.0964729e-12
3.9043225e-12
7.8499159e-13
3.0851872e-11
1.8244282e-10
3.0294765e-10
1.8244093e-10
3.0851072e-11
8.5539561e-10
5.2330388e-09
8.8954562e-09
5.2329799e-09
8.5537399e-10
1.5911595e-08
8.0686751e-08
1.3205644e-07
8.068586e-08
1.5911253e-08
1.0283872e-14
4.2040456e-14
6.1202202e-14
4.2040316e-14
1.0283756e-14
5.3451638e-13
2.8317825e-12
4.4638875e-12
2.8317716e-12
5.3451003e-13
2.1204989e-11
1.3339975e-10
2.2378021e-10
1.3339899e-10
2.1204701e-11
6.0169721e-10
3.8979599e-09
6.7056436e-09
3.8979295e-09
6.0168789e-10
1.1674279e-08
6.2110027e-08
1.0317703e-07
6.2109471e-08
1.1674101e-08
1.6361435e-05
1.748185e-05
1.7723569e-05
1.7481846e-05
1.6361432e-05
1.9541802e-05
2.0038537e-05
2.0170609e-05
2.0038539e-05
1.9541804e-05
2.0788991e-05
2.1002102e-05
2.1055813e-05
2.1002114e-05
2.0789007e-05
2.1169962e-05
2.1240308e-05
2.1254269e-05
2.1240311e-05
2.1169967e-05
2.1270909e-05
2.1288723e-05
2.1291106e-05
2.1288723e-05
2.127091e-05
1.9096575e-06
3.1488213e-06
3.8617202e-06
3.1488281e-06
1.9096626e-06
1.0593248e-05
1.2708464e-05
1.3525773e-05
1.2708477e-05
1.0593263e-05
1.7786949e-05
1.9306714e-05
1.9691994e-05
1.9306775e-05
1.7787024e-05
2.0459363e-05
2.0910759e-05
2.1002526e-05
2.0910754e-05
2.0459367e-05
2.1109389e-05
2.1233771e-05
2.1251045e-05
2.1233769e-05
2.1109364e-05
2.5733756e-07
3.6173086e-07
4.2877933e-07
3.6173138e-07
2.5733823e-07
6.2657916e-06
8.0147945e-06
8.6522278e-06
8.0148069e-06
6.2658097e-06
1.412572e-05
1.6234826e-05
1.6950356e-05
1.6234808e-05
1.4125713e-05
1.8957841e-05
2.0148323e-05
2.0415879e-05
2.0148287e-05
1.8957808e-05
2.0741021e-05
2.1104257e-05
2.1156363e-05
2.1104255e-05
2.0740928e-05
9.8554402e-08
1.291097e-07
1.3922566e-07
1.2910927e-07
9.8553675e-08
3.4162177e-06
5.246519e-06
5.9098839e-06
5.2465069e-06
3.416197e-06
1.110372e-05
1.3589071e-05
1.4408959e-05
1.3589046e-05
1.1103685e-05
1.7104355e-05
1.8970933e-05
1.9435356e-05
1.8970929e-05
1.7104326e-05