/*--------------------------------*- C++ -*----------------------------------*\
| =========                 |                                                 |
| \\      /  F ield         | OpenFOAM: The Open Source CFD Toolbox           |
|  \\    /   O peration     | Version:  2.3.x                                 |
|   \\  /    A nd           | Web:      www.OpenFOAM.org                      |
|    \\/     M anipulation  |                                                 |
\*---------------------------------------------------------------------------*/
FoamFile
{
    version     2.0;
    format      ascii;
    class       volScalarField;
    location    "0.018";
    object      concSource;
}
// * * * * * * * * * * * * * * * * * * * * * * * * * * * * * * * * * * * * * //

dimensions      [0 -3 -1 0 1 0 0];

internalField   nonuniform List<scalar> 
10000
(
0.0030750653
0.00083494288
0.00049851175
0.00083494207
0.0030750624
4.1397296e-07
1.6904921e-07
1.2922799e-07
1.6904912e-07
4.1397275e-07
3.7544262e-08
3.0740943e-08
2.9307828e-08
3.0740946e-08
3.7544285e-08
2.5867051e-08
2.5080634e-08
2.4940794e-08
2.5080634e-08
2.5867052e-08
2.4705584e-08
2.4607631e-08
2.4596828e-08
2.4607631e-08
2.4705584e-08
0.036386596
0.035671522
0.034600463
0.035671538
0.036386612
0.00036856375
5.4452699e-05
2.7067927e-05
5.4453602e-05
0.00036857109
7.2324306e-07
1.6790614e-07
1.1518815e-07
1.6791903e-07
7.2332162e-07
4.9431648e-08
3.3102688e-08
3.067937e-08
3.3102955e-08
4.9432587e-08
2.7694002e-08
2.5478931e-08
2.5213939e-08
2.5478944e-08
2.7693981e-08
0.010715495
0.01216898
0.013118432
0.012168962
0.010715471
0.0037475819
0.0010180157
0.00056739559
0.0010179973
0.0037475122
1.2816225e-05
1.7182679e-06
9.1462428e-07
1.7181814e-06
1.2815476e-05
1.7219727e-07
6.1571064e-08
4.9619699e-08
6.1567658e-08
1.7218587e-07
3.6801054e-08
2.7936413e-08
2.6962407e-08
2.7936195e-08
3.6796873e-08
0.0051550214
0.0058997385
0.0060385877
0.0058997495
0.005155057
0.0080578159
0.0041007169
0.0028256481
0.0041006508
0.008057677
0.00010740983
1.3130228e-05
6.2391179e-06
1.3129358e-05
0.00010739985
7.301874e-07
1.4756672e-07
1.0096053e-07
1.4755878e-07
7.3010602e-07
6.065063e-08
3.3561198e-08
3.0834886e-08
3.3560871e-08
6.0645934e-08
0.0028001757
0.0037467936
0.0040351599
0.0037468105
0.0028002051
0.0084723828
0.0067873057
0.0056691057
0.0067873097
0.0084724045
0.00042199159
6.4328226e-05
3.0993796e-05
6.4326604e-05
0.00042197661
2.9786759e-06
4.0689786e-07
2.3931248e-07
4.0689198e-07
2.9785554e-06
1.1716649e-07
4.4947679e-08
3.8288626e-08
4.494841e-08
1.1716771e-07
0.0016070173
0.002298195
0.0026083852
0.002298205
0.0016070341
0.007136688
0.0071194156
0.0067910059
0.0071194304
0.0071367146
0.0010115313
0.00020315787
0.00010471213
0.00020315393
0.0010115048
1.0138969e-05
1.1254332e-06
5.9104701e-07
1.1253983e-06
1.0138434e-05
2.4741101e-07
6.6028361e-08
5.1453565e-08
6.602697e-08
2.4740421e-07
0.0010253193
0.001424359
0.001638029
0.0014243626
0.0010253268
0.0059031898
0.0062594215
0.00632991
0.0062594447
0.0059032227
0.0017851916
0.00046604046
0.00025965389
0.00046603866
0.001785179
2.7891339e-05
2.9023601e-06
1.409944e-06
2.9023173e-06
2.7890673e-05
5.2846751e-07
1.0260697e-07
7.2723869e-08
1.0260444e-07
5.2845858e-07
0.00071500719
0.00094723561
0.0010704397
0.00094723421
0.00071500817
0.0049817374
0.0053620148
0.0054799413
0.0053620362
0.0049817597
0.0025922433
0.00085612772
0.00051539001
0.00085613673
0.0025922612
6.3807201e-05
6.8358457e-06
3.174981e-06
6.8358844e-06
6.3807437e-05
1.104061e-06
1.6496306e-07
1.0640274e-07
1.649612e-07
1.1040646e-06
0.00052370949
0.00067988294
0.00075192532
0.00067988037
0.00052370836
0.0042331971
0.0046834106
0.0047786108
0.0046834249
0.0042332097
0.0033054267
0.0013461469
0.0008720898
0.0013461689
0.0033054605
0.00012596318
1.4752735e-05
6.7344551e-06
1.4752907e-05
0.00012596376
2.2269232e-06
2.716706e-07
1.6014478e-07
2.7166263e-07
2.2268658e-06
0.00039186421
0.00051394035
0.00056274117
0.00051393703
0.00039186104
0.0035749411
0.0041465808
0.0042523922
0.0041465881
0.0035749404
0.0038459639
0.0018851785
0.0013074203
0.0018852229
0.003846029
0.00022166203
2.9324761e-05
1.3441789e-05
2.9325909e-05
0.00022166913
4.3227153e-06
4.5534023e-07
2.4728698e-07
4.5534837e-07
4.3228216e-06
0.00029705726
0.00039913411
0.00043766626
0.00039913143
0.00029705457
0.0029987716
0.0036730172
0.0038177049
0.0036730179
0.002998763
0.0041968709
0.0024152882
0.0017833
0.0024153375
0.0041969202
0.00035458842
5.3883822e-05
2.5212723e-05
5.3885889e-05
0.00035459757
8.0251891e-06
7.6855633e-07
3.8891702e-07
7.6856648e-07
8.0252839e-06
0.00022720512
0.00031368029
0.00034723342
0.00031367766
0.00022720236
0.0025011808
0.0032273748
0.0034197306
0.0032273699
0.002501166
0.0043684874
0.0028808213
0.0022534669
0.0028808825
0.0043685388
0.00052473096
9.206887e-05
4.4439728e-05
9.2073946e-05
0.00052475274
1.4199597e-05
1.294223e-06
6.1805771e-07
1.2943035e-06
1.4200459e-05
0.00017529595
0.00024823482
0.0002779606
0.00024823278
0.00017529399
0.0020802478
0.002811072
0.0030377832
0.0028110623
0.0020802317
0.0043921348
0.0032484467
0.0026720643
0.003248495
0.0043921579
0.0007279318
0.00014694425
7.3703691e-05
0.00014695126
0.00072795591
2.3917636e-05
2.1545994e-06
9.8400384e-07
2.1547219e-06
2.3918923e-05
0.000136533
0.00019728186
0.00022352871
0.0001972801
0.00013653139
0.0017307461
0.0024289359
0.0026746276
0.0024289222
0.001730729
0.0043083464
0.0035040933
0.0030126543
0.0035041289
0.0043083512
0.00095731829
0.00022080562
0.00011546346
0.00022081603
0.00095735019
3.8414147e-05
3.5240283e-06
1.5595019e-06
3.5242897e-06
3.8416894e-05
0.00010740369
0.00015731234
0.00018018821
0.00015731121
0.00010740285
0.001443762
0.0020852382
0.0023353249
0.0020852233
0.0014437479
0.0041535562
0.003649931
0.0032607869
0.0036499347
0.0041535276
0.0012045117
0.00031479602
0.00017175619
0.0003148052
0.0012045296
5.9020925e-05
5.6412311e-06
2.4484572e-06
5.6415053e-06
5.9023572e-05
8.5333653e-05
0.00012589799
0.00014547069
0.00012589736
8.533334e-05
0.0012091482
0.001782558
0.0020245316
0.0017825443
0.0012091378
0.0039553384
0.0037010544
0.0034154784
0.0037010307
0.0039552888
0.0014603705
0.0004288811
0.00024402471
0.00042888671
0.0014603691
8.7065886e-05
8.8168185e-06
3.7932211e-06
8.8170742e-06
8.7067973e-05
6.8439332e-05
0.00010122954
0.00011768274
0.00010122954
6.8439661e-05
0.0010171512
0.0015210533
0.0017461691
0.0015210439
0.0010171471
0.0037326189
0.0036779629
0.0034861571
0.0036779103
0.0037325524
0.0017157049
0.00056179357
0.00033287252
0.00056178707
0.0017156609
0.0001237825
1.3438604e-05
5.7834873e-06
1.3438412e-05
0.00012377979
5.5359861e-05
8.1875383e-05
9.5515659e-05
8.1875882e-05
5.5360619e-05
0.00085933158
0.001298485
0.0015020241
0.0012984818
0.00085933357
0.003497775
0.0036012937
0.0034885862
0.0036012272
0.0034977072
0.0019617214
0.00071112906
0.0004380139
0.00071110612
0.0019616335
0.0001701563
1.9959497e-05
8.6567966e-06
1.9958498e-05
0.00017014613
4.5116239e-05
6.6676794e-05
7.7891689e-05
6.6677718e-05
4.5117377e-05
0.00072879477
0.0011109178
0.0012915509
0.0011109214
0.00072880323
0.0032588672
0.0034886597
0.0034400665
0.0034885892
0.0032588088
0.0021909086
0.00087373965
0.00055839506
0.00087369317
0.0021907699
0.00022694273
2.8903886e-05
1.270885e-05
2.8901195e-05
0.00022691894
3.7004622e-05
5.4701373e-05
6.3903471e-05
5.4702526e-05
3.7005929e-05
0.00062007584
0.00095354281
0.0011122927
0.00095355196
0.00062008886
0.0030211495
0.0033531727
0.0033560459
0.0033531106
0.0030211127
0.0023968615
0.0010456532
0.00069207894
0.0010455845
0.0023966913
0.0002944552
4.0817901e-05
1.8276289e-05
4.0812971e-05
0.00029441611
3.0515219e-05
4.5198565e-05
5.2773775e-05
4.5199808e-05
3.0516643e-05
0.00052895435
0.0008214606
0.00096060028
0.00082147384
0.00052897147
0.0027883801
0.0032040426
0.0032488518
0.0032039962
0.0027883694
0.0025752094
0.0012228958
0.0008367758
0.0012228058
0.0025750202
0.00037279032
5.630309e-05
2.5757715e-05
5.629493e-05
0.00037273212
2.528262e-05
3.7597275e-05
4.387734e-05
3.7598481e-05
2.5284012e-05
0.00045228123
0.00071026204
0.00083246332
0.0007102776
0.00045230027
0.0025629151
0.003046907
0.003126898
0.0030468827
0.0025629324
0.0027226424
0.0014008512
0.00098938937
0.001400751
0.0027224663
0.00046143767
7.5902607e-05
3.5561068e-05
7.5891169e-05
0.00046136464
2.1023396e-05
3.1470253e-05
3.6733517e-05
3.1471341e-05
2.1024677e-05
0.00038731346
0.00061633255
0.00072435837
0.00061634868
0.00038733287
0.0023468258
0.0028854099
0.0029956632
0.0028854061
0.002346867
0.0028381305
0.0015756211
0.0011469252
0.0015755199
0.0028379884
0.00055985366
0.00010020657
4.8155212e-05
0.00010019171
0.00055976922
1.7539283e-05
2.6473361e-05
3.0930733e-05
2.6474287e-05
1.7540423e-05
0.00033214651
0.00053621481
0.00063230775
0.00053623029
0.0003321657
0.0021420042
0.002721905
0.0028583881
0.0027219213
0.0021420723
0.0029210532
0.0017427114
0.0013057003
0.0017426237
0.0029209652
0.00066669684
0.00012963075
6.3956001e-05
0.00012961378
0.00066661271
1.4675553e-05
2.2358663e-05
2.6174448e-05
2.2359356e-05
1.4676506e-05
0.00028520729
0.0004673991
0.00055345455
0.0004674118
0.00028522478
0.0019497154
0.0025583152
0.002717786
0.0025583435
0.001949797
0.0029729602
0.0018991257
0.0014625676
0.0018990608
0.0029729324
0.00078095569
0.00016467024
8.3450616e-05
0.00016465254
0.00078088127
1.2309981e-05
1.895124e-05
2.2234729e-05
1.8951773e-05
1.2310703e-05
0.00024514003
0.00040810293
0.00048531325
0.00040811394
0.00024515438
0.0017698202
0.0023965766
0.0025745108
0.0023966216
0.0017699031
0.0029950076
0.002041075
0.0016139438
0.0020410413
0.0029950391
0.0009006427
0.00020549567
0.0001069777
0.00020548006
0.00090059208
1.034669e-05
1.6112537e-05
1.8963682e-05
1.611289e-05
1.0347225e-05
0.00021085135
0.00035682937
0.000426493
0.00035683773
0.00021086278
0.0016025176
0.002238362
0.0024321071
0.0022384108
0.0016025975
0.0029904943
0.0021667306
0.0017570223
0.002166728
0.0029905798
0.0010246198
0.00025245283
0.00013499582
0.0002524417
0.0010246003
8.7148324e-06
1.3730223e-05
1.6221121e-05
1.3730439e-05
8.7151655e-06
0.00018151518
0.000312224
0.00037526635
0.00031223
0.00018152302
0.0014478998
0.0020836542
0.0022899939
0.0020837036
0.0014479673
0.0029617612
0.0022736707
0.0018883991
0.0022737006
0.0029618859
0.0011503216
0.00030537682
0.0001676635
0.00030537315
0.001150342
7.3544593e-06
1.1721732e-05
1.3905174e-05
1.1721847e-05
7.354611e-06
0.00015639202
0.00027332783
0.00033042196
0.0002733316
0.00015639629
0.0013058722
0.0019337651
0.0021492147
0.001933805
0.0013059204
0.0029129514
0.0023618874
0.0020068922
0.0023619399
0.00291309
0.0012766705
0.0003644427
0.00020539007
0.00036444859
0.0012767303
6.2173692e-06
1.0019733e-05
1.1939185e-05
1.0019788e-05
6.2173936e-06
0.00013484569
0.00023927706
0.0002910035
0.00023927937
0.00013484726
0.0011757342
0.001788826
0.0020101507
0.0017888581
0.0011757652
0.0028460276
0.0024297743
0.0021097976
0.0024298451
0.0028461649
0.0014010058
0.00042915178
0.0002480744
0.00042916778
0.0014011001
5.2653866e-06
8.5778438e-06
1.0264566e-05
8.5778022e-06
5.2653123e-06
0.00011636898
0.00020954856
0.00025631434
0.00020954853
0.00011636824
0.0010571977
0.0016505809
0.0018743435
0.0016505989
0.0010572095
0.0027652031
0.0024789363
0.0021973164
0.0024790135
0.0027653201
0.001522555
0.00049947553
0.00029607532
0.00049950276
0.0015226755
4.4659057e-06
7.3511435e-06
8.8339729e-06
7.3510559e-06
4.4657891e-06
0.00010048897
0.00018350912
0.00022573061
0.0001835078
0.00010048708
0.00094926376
0.0015188618
0.0017421765
0.0015188696
0.00094926299
0.0026719274
0.002508694
0.0022673565
0.0025087675
0.0026720186
0.001638513
0.00057448236
0.00034894042
0.00057451717
0.0016386456
3.7941327e-06
6.3074536e-06
7.6105238e-06
6.3073365e-06
3.7939843e-06
8.6855116e-05
0.00016075094
0.00019880124
0.00016074862
8.6852262e-05
0.00085158078
0.0013947883
0.0016151894
0.0013947852
0.0008515678
0.0025702334
0.0025218614
0.0023216593
0.0025219249
0.0025702904
0.001748653
0.00065418519
0.00040697561
0.00065422795
0.0017487886
3.2274611e-06
5.4166419e-06
6.5612185e-06
5.4165369e-06
3.2273208e-06
7.5109821e-05
0.00014080945
0.00017503774
0.00014080717
7.5106921e-05
0.00076300757
0.001277894
0.0014932838
0.0012778868
0.0007629897
0.0024608315
0.0025179656
0.0023587753
0.0025180128
0.0024608588
0.0018501814
0.00073725907
0.00046942063
0.00073730175
0.0018503023
2.749767e-06
4.6576453e-06
5.6624968e-06
4.6575417e-06
2.749628e-06
6.5013588e-05
0.00012340406
0.00015414568
0.0001234016
6.5010545e-05
0.00068323589
0.0011690791
0.0013778591
0.0011690667
0.00068321305
0.0023474732
0.0025005462
0.0023814639
0.0025005782
0.0023474707
0.0019435005
0.00082363956
0.00053653542
0.00082368485
0.0019436073
2.3451449e-06
4.0082682e-06
4.8899037e-06
4.0081855e-06
2.3450392e-06
5.629514e-05
0.00010815303
0.00013571567
0.00010815096
5.6292725e-05
0.00061111023
0.0010674837
0.0012683374
0.0010674707
0.00061108968
0.0022301795
0.0024690666
0.0023885486
0.0024690818
0.0022301579
0.0020258484
0.00091166836
0.00060725934
0.00091170484
0.0020259193
2.0030217e-06
3.454033e-06
4.2278789e-06
3.4539568e-06
2.0029302e-06
4.879099e-05
9.485023e-05
0.00011954844
9.4848236e-05
4.8788825e-05
0.00054638858
0.00097374636
0.0011659342
0.00097373155
0.00054636829
0.0021123739
0.0024274237
0.0023834875
0.002427427
0.0021123389
0.002098402
0.0010013581
0.0006816671
0.0010013929
0.0020984556
1.7118936e-06
2.9782024e-06
3.6571505e-06
2.978153e-06
1.7118356e-06
4.2290244e-05
8.3176998e-05
0.00010527846
8.3175639e-05
4.2288816e-05
0.00048793009
0.00088671653
0.0010695732
0.00088670478
0.00048791522
0.0019933558
0.0023747584
0.002365136
0.0023747508
0.0019933178
0.0021585803
0.0010909029
0.00075861642
0.0010909229
0.0021585949
1.4650864e-06
2.5718153e-06
3.1678492e-06
2.5717735e-06
1.4650375e-06
3.6688277e-05
7.3008432e-05
9.2782377e-05
7.3007257e-05
3.6687054e-05
0.00043562292
0.00080703911
0.00098035284
0.0008070281
0.00043560955
0.0018763288
0.0023151005
0.0023372991
0.0023150896
0.0018762899
0.0022081483
0.0011801942
0.00083796382
0.0011802139
0.0022081572
1.2541048e-06
2.2217514e-06
2.7447796e-06
2.2217306e-06
1.2540805e-06
3.1818989e-05
6.4070166e-05
8.1740749e-05
6.4069539e-05
3.1818349e-05
0.00038838321
0.00073333645
0.00089687857
0.00073332944
0.00038837526
0.001759993
0.0022471461
0.0022985952
0.002247131
0.0017599603
0.0022447455
0.0012675029
0.00091860234
0.0012675057
0.0022447234
1.0749607e-06
1.9225075e-06
2.3819907e-06
1.922489e-06
1.0749385e-06
2.7621601e-05
5.6289979e-05
7.2087884e-05
5.6289431e-05
2.7621029e-05
0.00034624449
0.0006662538
0.00082019899
0.00066624771
0.00034623753
0.0016474427
0.0021749566
0.0022529858
0.0021749442
0.0016474151
0.0022706217
0.0013525655
0.0010000113
0.0013525723
0.0022706095
9.2110883e-07
1.6635244e-06
2.067034e-06
1.6635186e-06
9.2110153e-07
2.3960037e-05
4.9428084e-05
6.3536875e-05
4.9427897e-05
2.3959837e-05
0.00030816298
0.00060426379
0.00074865851
0.00060426095
0.00030815998
0.0015368191
0.0020967048
0.0021987212
0.0020966922
0.0015368001
0.0022836588
0.0014339992
0.0010813954
0.0014339907
0.0022836259
7.9039473e-07
1.4419947e-06
1.7969271e-06
1.441987e-06
7.9038433e-07
2.0805321e-05
4.3459823e-05
5.6072485e-05
4.3459602e-05
2.0805062e-05
0.0002743081
0.000548117
0.00068335952
0.00054811441
0.00027430494
0.0014312018
0.0020165161
0.0021398635
0.0020165088
0.0014311875
0.0022865159
0.0015112385
0.0011616962
0.00151124
0.0022865044
6.77626e-07
1.249285e-06
1.5613058e-06
1.2492841e-06
6.7762341e-07
1.804331e-05
3.8174752e-05
4.9436526e-05
3.817473e-05
1.8043251e-05
0.00024367766
0.00049620662
0.00062247599
0.00049620602
0.00024367679
0.0013282361
0.0019320154
0.0020742049
0.0019320089
0.001328228
0.0022772175
0.001583445
0.0012406881
0.0015834342
0.0022771922
5.8185413e-07
1.0844422e-06
1.3592942e-06
1.0844369e-06
5.8184618e-07
1.5666903e-05
3.3583488e-05
4.3653225e-05
3.3583356e-05
1.5666719e-05
0.00021655132
0.00044940463
0.0005672108
0.00044940343
0.00021654939
0.0012310574
0.0018474779
0.0020059617
0.0018474762
0.0012310509
0.002258818
0.0016496946
0.0013166295
0.0016496985
0.0022588178
4.9885026e-07
9.402385e-07
1.1820928e-06
9.4023633e-07
4.988462e-07
1.3578385e-05
2.9498698e-05
3.8488306e-05
2.9498655e-05
1.3578298e-05
0.00019196803
0.00040605866
0.0005156223
0.00040605834
0.00019196717
0.0011368714
0.0017599601
0.0019324054
0.0017599579
0.0011368671
0.002229325
0.0017098257
0.0013900954
0.0017098198
0.0022293127
4.2845667e-07
8.1698746e-07
1.0302977e-06
8.1698078e-07
4.284474e-07
1.1785565e-05
2.5956788e-05
3.3995989e-05
2.5956619e-05
1.1785347e-05
0.0001702933
0.00036716286
0.00046903717
0.00036716147
0.00017029106
0.0010489152
0.0016739849
0.0018580135
0.0016739853
0.0010489095
0.0021922262
0.0017625537
0.0014585725
0.0017625639
0.0021922359
3.6716147e-07
7.0852866e-07
8.9632733e-07
7.0852331e-07
3.6715428e-07
1.0203642e-05
2.2789425e-05
2.996278e-05
2.2789287e-05
1.020347e-05
0.00015060904
0.00033104628
0.0004254468
0.00033104502
0.00015060718
0.00096401368
0.0015860217
0.0017794783
0.0015860197
0.00096400711
0.0021453072
0.0018084211
0.0015235889
0.0018084226
0.0021453032
3.153096e-07
6.1600905e-07
7.8177647e-07
6.1600017e-07
3.1529859e-07
8.8501775e-06
2.0050949e-05
2.6464783e-05
2.0050705e-05
8.8499036e-06
0.00013334301
0.00029881098
0.00038630289
0.0002988086
0.00013333992
0.00088552947
0.0015009283
0.0017016555
0.0015009268
0.00088551976
0.0020925697
0.0018458559
0.0015818468
0.0018458716
0.002092581
2.6993884e-07
5.3409291e-07
6.8002065e-07
5.3408482e-07
2.6992935e-07
7.6508245e-06
1.7588732e-05
2.3306206e-05
1.75885e-05
7.6505817e-06
0.00011762154
0.0002687837
0.00034955688
0.00026878116
0.00011761859
0.00080996608
0.0014145661
0.0016205992
0.001414561
0.00080995407
0.0020313535
0.0018760178
0.0016358768
0.001876025
0.0020313493
2.3169786e-07
4.6444244e-07
5.932852e-07
4.6443226e-07
2.3168625e-07
6.6291347e-06
1.5468656e-05
2.057775e-05
1.5468356e-05
6.6288317e-06
0.00010391351
0.00024215087
0.00031676866
0.00024214749
0.00010390973
0.0007408167
0.0013321888
0.0015416486
0.0013321828
0.00074080163
0.0019662885
0.0018972079
0.0016816847
0.0018972252
0.0019662927
1.9806352e-07
4.023759e-07
5.1571219e-07
4.0236657e-07
1.9805336e-07
5.7195919e-06
1.3551335e-05
1.8098851e-05
1.3551049e-05
5.7193193e-06
9.1392383e-05
0.00021724797
0.00028586885
0.00021724445
9.138877e-05
0.00067432684
0.0012490288
0.0014601553
0.0012490191
0.00067430959
0.0018940432
0.0019109954
0.0017227212
0.0019110044
0.0018940321
1.6985191e-07
3.4984723e-07
4.4989154e-07
3.4983713e-07
1.6984104e-07
4.9490165e-06
1.190936e-05
1.5969033e-05
1.1909047e-05
4.9487215e-06
8.0549841e-05
0.0001953216
0.00025850237
0.00019531764
8.054586e-05
0.00061410809
0.0011707785
0.0013820272
0.0011707677
0.00061408898
0.0018200041
0.0019158017
0.0017544954
0.0019158161
0.0018199964
1.4490156e-07
3.0271784e-07
3.9060171e-07
3.0270874e-07
1.4489212e-07
4.2595725e-06
1.0415105e-05
1.4021292e-05
1.0414814e-05
4.2593103e-06
7.0609378e-05
0.00017472886
0.00023259572
0.00017472491
7.0605654e-05
0.00055621447
0.0010920391
0.0013018564
0.0010920255
0.00055619419
0.0017399637
0.0019132897
0.0017811587
0.0019132966
0.0017399432
1.2410294e-07
2.6307841e-07
3.4060615e-07
2.6306944e-07
1.2409371e-07
3.6793958e-06
9.1442863e-06
1.2359455e-05
9.1439968e-06
3.6791371e-06
6.2070015e-05
0.00015675326
0.00020985271
0.00015674926
6.2066285e-05
0.00050435027
0.0010189597
0.0012261761
0.0010189457
0.00050432961
0.0016601836
0.0019023159
0.0017980273
0.0019023244
0.0016601642
1.0559855e-07
2.2724916e-07
2.9522366e-07
2.2724126e-07
1.0559066e-07
3.1574339e-06
7.9798043e-06
1.0828791e-05
7.979543e-06
3.1572083e-06
5.4207222e-05
0.00013978293
0.00018820959
0.00013977911
5.4203828e-05
0.00045444231
0.00094551789
0.0011487773
0.00094550235
0.00045442168
0.0015754118
0.0018842435
0.0018096092
0.0018842463
0.0015753837
9.0290917e-08
1.9735076e-07
2.5725915e-07
1.9734348e-07
9.0283678e-08
2.721763e-06
6.9978658e-06
9.5340729e-06
6.9976228e-06
2.7215544e-06
4.7514781e-05
0.00012511712
0.00016940395
0.0001251135
4.7511599e-05
0.00041025219
0.00087831616
0.001076848
0.00087830087
0.00041023242
0.0014928768
0.0018587219
0.0018114138
0.0018587239
0.0014928492
7.6582415e-08
1.7010245e-07
2.2250438e-07
1.7009619e-07
7.6576338e-08
2.3273997e-06
6.0910664e-06
8.3320042e-06
6.090853e-06
2.3272216e-06
4.1321501e-05
0.00011118497
0.00015139626
0.00011118165
4.1318684e-05
0.00036764303
0.00081073919
0.001003365
0.00081072366
0.00036762424
0.0014061656
0.0018263776
0.0018078635
0.0018263758
0.0014061334
6.5347092e-08
1.4758419e-07
1.9371684e-07
1.4757869e-07
6.5341777e-08
2.0014233e-06
5.3342466e-06
7.3258782e-06
5.3340577e-06
2.0012664e-06
3.6106043e-05
9.9283382e-05
0.00013593511
9.9280385e-05
3.6103529e-05
0.00033039305
0.00074982145
0.00093617165
0.00074980682
0.00033037585
0.0013235256
0.0017880268
0.0017951035
0.0017880234
0.0013234946
5.5212026e-08
1.2686792e-07
1.6710717e-07
1.268633e-07
5.520764e-08
1.7043178e-06
4.6290358e-06
6.3831082e-06
4.6288741e-06
1.7041863e-06
3.125118e-05
8.7891581e-05
0.00012101753
8.7888919e-05
3.1249007e-05
0.00029436203
0.00068840456
0.0008674413
0.00068839058
0.0002943463
0.0012373231
0.0017431123
0.0017769633
0.001743107
0.0012372909
4.6997549e-08
1.0994747e-07
1.4532949e-07
1.0994356e-07
4.6993849e-08
1.4615508e-06
4.0476343e-06
5.6038819e-06
4.0474963e-06
1.4614392e-06
2.7212945e-05
7.8289148e-05
0.00010838486
7.8286833e-05
2.7211076e-05
0.00026330206
0.00063391939
0.00080566172
0.00063390667
0.00026328816
0.0011568368
0.0016939928
0.001750709
0.001693986
0.0011568064
3.9526564e-08
9.4210637e-08
1.2497279e-07
9.4207414e-08
3.9523557e-08
1.2385508e-06
3.5001631e-06
4.8658179e-06
3.5000476e-06
1.2384589e-06
2.3428014e-05
6.90136e-05
9.6083481e-05
6.9011602e-05
2.3426433e-05
0.00023312565
0.00057873029
0.00074224032
0.00057871867
0.00023311334
0.0010732058
0.0016384879
0.0017190203
0.0016384806
0.0010731765
3.3551292e-08
8.1536919e-08
1.0855198e-07
8.1534262e-08
3.3548824e-08
1.0588026e-06
3.0553245e-06
4.2648569e-06
3.0552285e-06
1.0587266e-06
2.0324435e-05
6.1314793e-05
8.5831304e-05
6.1313098e-05
2.032311e-05
0.00020751748
0.00053061812
0.0006862779
0.00053060781
0.00020750687
0.00099671615
0.0015808701
0.0016808056
0.0015808619
0.00099668915
2.8065781e-08
6.9598431e-08
9.2999088e-08
6.959628e-08
2.8063799e-08
8.9220158e-07
2.631224e-06
3.6883185e-06
2.6311452e-06
8.9213981e-07
1.73919e-05
5.3795111e-05
7.5734532e-05
5.3793682e-05
1.7390798e-05
0.00018249168
0.00048154361
0.00062846916
0.00048153451
0.0001824825
0.00091731607
0.0015169088
0.001636995
0.0015169007
0.00091729121
2.3747455e-08
6.014466e-08
8.0669218e-08
6.0142914e-08
2.3745857e-08
7.6006235e-07
2.2925334e-06
3.2271627e-06
2.2924689e-06
7.6001222e-07
1.5027051e-05
4.7664955e-05
6.7474567e-05
4.7663761e-05
1.5026143e-05
0.0001616289
0.00043958647
0.00057848922
0.00043957852
0.00016162111
0.00084625088
0.0014531621
0.0015887087
0.0014531537
0.00084622824
1.9739695e-08
5.1103414e-08
6.8805829e-08
5.1102022e-08
1.9738422e-08
6.3629432e-07
1.9648174e-06
2.777895e-06
1.9647653e-06
6.3625396e-07
1.2770807e-05
4.1595857e-05
5.9225708e-05
4.1594868e-05
1.2770061e-05
0.00014108404
0.00039637565
0.00052638112
0.00039636877
0.00014107741
0.00077233732
0.0013829236
0.0015344755
0.0013829157
0.00077231701
1.6643754e-08
4.4088418e-08
5.9596054e-08
4.4087292e-08
1.6642737e-08
5.3998844e-07
1.7084731e-06
2.4261314e-06
1.7084306e-06
5.3995598e-07
1.0986603e-05
3.67523e-05
5.2623706e-05
3.6751475e-05
1.0985993e-05
0.00012430371
0.00036024471
0.00048235972
0.00036023872
0.00012429811
0.00070772356
0.0013154342
0.00147827
0.0013154262
0.00070770516
1.3733525e-08
3.7255797e-08
5.0563845e-08
3.7254909e-08
1.373272e-08
4.4866002e-07
1.4559441e-06
2.0769474e-06
1.4559101e-06
4.4863405e-07
9.2645194e-06
3.1876346e-05
4.5915347e-05
3.1875671e-05
9.2640218e-06
0.00010761784
0.00032254927
0.00043586711
0.00032254412
0.00010761313
0.00064018954
0.0012410487
0.0014154786
0.0012410411
0.0006401732
1.1536848e-08
3.2085521e-08
4.3730024e-08
3.2084796e-08
1.1536204e-08
3.7923585e-07
1.2633546e-06
1.8105776e-06
1.2633266e-06
3.7921495e-07
7.9346142e-06
2.8083663e-05
4.0686201e-05
2.8083094e-05
7.9342067e-06
9.4317677e-05
0.00029184785
0.00039764213
0.00029184332
9.4313685e-05
0.00058272069
0.0011721582
0.0013537003
0.0011721506
0.00058270581
9.4380507e-09
2.6934257e-08
3.686681e-08
2.6933689e-08
9.4375437e-09
3.123448e-07
1.0693449e-06
1.5398902e-06
1.0693227e-06
3.1232816e-07
6.631374e-06
2.4184337e-05
3.5254618e-05
2.4183873e-05
6.6310435e-06
8.0911098e-05
0.00025925153
0.00035654413
0.00025924762
8.0907752e-05
0.00052205446
0.0010956211
0.0012842693
0.0010956135
0.00052204121
7.8988196e-09
2.3157766e-08
3.1840003e-08
2.3157295e-08
7.8984122e-09
2.6294884e-07
9.2603639e-07
1.34006e-06
9.2601778e-07
2.6293536e-07
5.6539595e-06
2.1247246e-05
3.1158032e-05
2.1246849e-05
5.6536869e-06
7.0539611e-05
0.00023355291
0.00032386688
0.00023354943
7.0536755e-05
0.00047207775
0.0010276157
0.001219427
0.0010276081
0.00047206559
6.395711e-09
1.9282728e-08
2.6633569e-08
1.9282363e-08
6.3953935e-09
2.14322e-07
7.7739799e-07
1.1306927e-06
7.773833e-07
2.1431139e-07
4.6759367e-06
1.8142087e-05
2.6777051e-05
1.8141763e-05
4.6757176e-06
5.9877465e-05
0.00020558712
0.00028782847
0.0002055841
5.9875085e-05
0.00041840212
0.0009506766
0.0011451913
0.00095066879
0.00041839127
5.3346938e-09
1.6559055e-08
2.2980958e-08
1.6558749e-08
5.3344379e-09
1.7976724e-07
6.7216702e-07
9.8269614e-07
6.7215459e-07
1.797586e-07
3.9703453e-06
1.5900822e-05
2.3613655e-05
1.5900543e-05
3.9701639e-06
5.1949734e-05
0.00018447229
0.00026041597
0.00018446958
5.1947696e-05
0.00037604273
0.00088581135
0.001079986
0.00088580356
0.00037603278
4.26447e-09
1.364661e-08
1.9032337e-08
1.3646376e-08
4.2642758e-09
1.4463952e-07
5.5844234e-07
8.2087686e-07
5.5843265e-07
1.4463288e-07
3.241497e-06
1.343451e-05
2.008746e-05
1.3434284e-05
3.2413542e-06
4.3540524e-05
0.00016061387
0.00022898861
0.00016061151
4.3538853e-05
0.00032911478
0.00080978799
0.0010024738
0.00080978009
0.00032910598
3.5508296e-09
1.1721507e-08
1.642949e-08
1.1721313e-08
3.5506748e-09
1.2106914e-07
4.8276976e-07
7.1346234e-07
4.827616e-07
1.2106379e-07
2.745348e-06
1.176229e-05
1.7697688e-05
1.1762096e-05
2.7452308e-06
3.7650649e-05
0.00014372301
0.00020660147
0.0001437209
3.7649231e-05
0.00029441871
0.00075044069
0.00093996866
0.00075043291
0.00029441075
2.7887206e-09
9.5232353e-09
1.3420724e-08
9.5230934e-09
2.7886094e-09
9.5696295e-08
3.9541306e-07
5.878433e-07
3.9540691e-07
9.5692381e-08
2.2024453e-06
9.7973061e-06
1.4849675e-05
9.7971525e-06
2.2023568e-06
3.1025458e-05
0.00012334538
0.00017916106
0.00012334359
3.1024336e-05
0.00025351652
0.00067583164
0.00085992638
0.00067582412
0.00025350968
2.3315346e-09
8.2171902e-09
1.163799e-08
8.2170767e-09
2.3314491e-09
8.040152e-08
3.4324561e-07
5.1300469e-07
3.4324057e-07
8.0398462e-08
1.871094e-06
8.6041974e-06
1.3121253e-05
8.6040681e-06
1.8710231e-06
2.688121e-05
0.00011050004
0.00016177452
0.00011049847
2.6880278e-05
0.00022677677
0.00062504371
0.00080414955
0.0006250365
0.00022677073
1.7743412e-09
6.5172865e-09
9.2902202e-09
6.5172124e-09
1.7742872e-09
6.1578032e-08
2.7448341e-07
4.1312337e-07
2.7447993e-07
6.1576035e-08
1.4556279e-06
6.9998277e-06
1.0765053e-05
6.9997317e-06
1.4555793e-06
2.1518758e-05
9.2671164e-05
0.00013724366
9.2669904e-05
2.1518074e-05
0.00019022594
0.00055047815
0.00072029146
0.00055047164
0.00019022106
1.5286804e-09
5.7487972e-09
8.2253824e-09
5.7487416e-09
1.5286408e-09
5.3294103e-08
2.4342177e-07
3.6784032e-07
2.4341902e-07
5.329259e-08
1.2716259e-06
6.2685859e-06
9.685712e-06
6.2685058e-06
1.2715875e-06
1.9098384e-05
8.4345932e-05
0.00012568803
8.4344824e-05
1.9097816e-05
0.00017308709
0.0005138652
0.00067834138
0.00051385912
0.00017308278
1.0443233e-09
4.1796146e-09
6.0370867e-09
4.1795967e-09
1.0443101e-09
3.6675259e-08
1.7875389e-07
2.7288681e-07
1.7875267e-07
3.6674666e-08
8.9318451e-07
4.7046525e-06
7.3568165e-06
4.7046072e-06
8.9316649e-07
1.3944095e-05
6.5811099e-05
9.9631241e-05
6.5810342e-05
1.3943777e-05
0.00013461658
0.00042675785
0.00057613834
0.00042675293
0.00013461364
0.0030750628
0.00083494283
0.000498513
0.00083494478
0.0030750684
4.1397281e-07
1.6904913e-07
1.2922792e-07
1.6904926e-07
4.139731e-07
3.7544285e-08
3.074094e-08
2.9307812e-08
3.0740927e-08
3.7544244e-08
2.5867052e-08
2.5080632e-08
2.4940792e-08
2.5080631e-08
2.5867047e-08
2.4705584e-08
2.4607631e-08
2.4596828e-08
2.4607631e-08
2.4705583e-08
0.03638661
0.035671533
0.034600442
0.035671507
0.036386584
0.00036857101
5.4453378e-05
2.706733e-05
5.4451975e-05
0.00036856086
7.2332047e-07
1.6791724e-07
1.1518361e-07
1.6790106e-07
7.2322985e-07
4.9432567e-08
3.3102855e-08
3.0679175e-08
3.3102412e-08
4.9431136e-08
2.7693981e-08
2.5478929e-08
2.5213915e-08
2.5478889e-08
2.7693919e-08
0.010715472
0.012168964
0.013118447
0.012168987
0.010715504
0.0037475097
0.001017988
0.00056739414
0.0010179938
0.003747528
1.2815475e-05
1.7181567e-06
9.1462069e-07
1.7181918e-06
1.2815604e-05
1.7218644e-07
6.156843e-08
4.9621234e-08
6.1571889e-08
1.7219393e-07
3.6797146e-08
2.7936183e-08
2.6962398e-08
2.7936359e-08
3.6802302e-08
0.0051550578
0.0058997525
0.0060385883
0.0058997466
0.0051550361
0.0080576757
0.0041006267
0.0028256234
0.0041006807
0.008057778
0.00010739981
1.3129045e-05
6.2388942e-06
1.3129559e-05
0.00010740554
7.3010382e-07
1.4755406e-07
1.0095533e-07
1.4755642e-07
7.3013844e-07
6.0645425e-08
3.3559854e-08
3.0833238e-08
3.3559155e-08
6.0646614e-08
0.0028002057
0.0037468167
0.0040351676
0.0037468038
0.002800187
0.0084724069
0.0067872909
0.0056690741
0.0067872942
0.008472385
0.00042197724
6.4325361e-05
3.0992826e-05
6.4326164e-05
0.00042198233
2.9785649e-06
4.0688175e-07
2.3930341e-07
4.0687616e-07
2.9785247e-06
1.1716805e-07
4.4948016e-08
3.8288185e-08
4.4946582e-08
1.1716129e-07
0.0016070341
0.0022982115
0.0026083943
0.0022982028
0.0016070239
0.0071367182
0.0071194194
0.0067909891
0.0071194114
0.0071366934
0.0010115066
0.00020315059
0.00010470933
0.00020315317
0.0010115172
1.0138476e-05
1.1253695e-06
5.9102291e-07
1.1253778e-06
1.0138585e-05