/*--------------------------------*- C++ -*----------------------------------*\
| =========                 |                                                 |
| \\      /  F ield         | OpenFOAM: The Open Source CFD Toolbox           |
|  \\    /   O peration     | Version:  2.3.x                                 |
|   \\  /    A nd           | Web:      www.OpenFOAM.org                      |
|    \\/     M anipulation  |                                                 |
\*---------------------------------------------------------------------------*/
FoamFile
{
    version     2.0;
    format      ascii;
    class       surfaceScalarField;
    location    "0.018";
    object      phi;
}
// * * * * * * * * * * * * * * * * * * * * * * * * * * * * * * * * * * * * * //

dimensions      [1 0 -1 0 0 0 0];

internalField   nonuniform List<scalar> 
29075
(
2.9195347e-09
1.3645418e-07
1.3369077e-07
-5.8017653e-15
1.3987676e-09
1.3870838e-07
1.747298e-07
-1.3987421e-09
1.37823e-07
1.9100112e-07
-2.9195089e-09
1.3870833e-07
1.7472984e-07
1.3645413e-07
1.3369083e-07
7.8857039e-15
5.5467635e-09
1.3417525e-07
2.3345615e-07
1.4609845e-14
2.9459529e-09
1.2767562e-07
2.8824104e-07
-2.9459584e-09
1.2347422e-07
3.08463e-07
-5.5467601e-09
1.2767555e-07
2.8824106e-07
1.3417513e-07
2.3345623e-07
1.9679243e-14
5.4249013e-09
9.2465377e-08
2.3666931e-07
4.837349e-14
2.907279e-09
8.3681405e-08
2.8381038e-07
-2.9073292e-09
7.9872229e-08
2.9983566e-07
-5.4249338e-09
8.3681584e-08
2.8381012e-07
9.2465558e-08
2.3666899e-07
2.3166895e-14
3.8846874e-09
5.4939776e-08
1.9768609e-07
4.4459148e-14
2.210776e-09
4.7484933e-08
2.3786052e-07
-2.2107897e-09
4.5594735e-08
2.5131541e-07
-3.8846893e-09
4.7485007e-08
2.3786061e-07
5.4939868e-08
1.976862e-07
2.4198487e-14
3.0671771e-09
1.4977839e-07
3.9505854e-14
2.9800456e-08
2.0169009e-09
1.8754356e-07
2.367362e-08
-2.0168837e-09
2.0035883e-07
2.4083582e-08
-3.0671478e-09
1.8754362e-07
2.3673627e-08
1.497785e-07
2.7236513e-14
2.9800483e-08
-5.7673529e-10
5.1132123e-08
8.3135421e-08
-4.0056748e-14
-3.5371559e-10
6.1993627e-08
1.1251316e-07
3.5382683e-10
6.5280595e-08
1.2501299e-07
5.7681406e-10
6.1993739e-08
1.1251312e-07
5.1132275e-08
8.3135362e-08
7.0547502e-15
1.5561029e-09
9.72351e-08
1.8579713e-07
-5.1489531e-14
1.2552804e-09
1.0371576e-07
2.4681974e-07
-1.2551745e-09
1.0541672e-07
2.7083733e-07
-1.5560091e-09
1.0371587e-07
2.4681977e-07
9.7235355e-08
1.8579713e-07
1.9559665e-14
3.3588119e-09
9.4751093e-08
2.3579456e-07
-5.2979207e-14
2.33813e-09
9.1098174e-08
2.9744867e-07
-2.3379688e-09
9.0536234e-08
3.1939225e-07
-3.3586751e-09
9.1098097e-08
2.9744861e-07
9.4751153e-08
2.357945e-07
3.0960931e-14
4.0621369e-09
6.8303861e-08
2.2007128e-07
-8.076675e-14
2.6875876e-09
6.0980155e-08
2.693531e-07
-2.6873632e-09
6.0957941e-08
2.8626866e-07
-4.0619273e-09
6.0979994e-08
2.6935329e-07
6.830388e-08
2.2007152e-07
3.2944321e-14
3.7550035e-09
1.7188705e-07
-1.4909908e-13
4.2440354e-08
2.6686797e-09
2.1601065e-07
3.3599407e-08
-2.6684157e-09
2.3123281e-07
3.5421074e-08
-3.7547004e-09
2.160106e-07
3.3599316e-08
1.7188735e-07
3.0816891e-14
4.2440305e-08
-6.3475256e-10
1.840598e-08
6.5364246e-08
-4.8906739e-14
-4.5946887e-10
2.4612833e-08
8.7725047e-08
4.5960732e-10
2.6812129e-08
9.7281789e-08
6.3484767e-10
2.4612988e-08
8.7724898e-08
1.8406189e-08
6.5364023e-08
3.1917518e-15
-1.0565759e-09
3.990542e-08
1.6535439e-07
-1.1275041e-13
-2.7259335e-10
5.0692553e-08
2.1995605e-07
2.7300163e-10
5.4104253e-08
2.4299962e-07
1.0568776e-09
5.0692823e-08
2.1995607e-07
3.990591e-08
1.6535428e-07
1.3018496e-14
5.5434298e-10
5.1787228e-08
2.2335861e-07
-1.885777e-13
6.2926039e-10
5.6451634e-08
2.9161468e-07
-6.2879329e-10
5.7930158e-08
3.1682441e-07
-5.5404933e-10
5.6451473e-08
2.9161523e-07
5.1787198e-08
2.2335915e-07
2.4104472e-14
1.8620033e-09
4.328004e-08
2.2671669e-07
-2.1178259e-13
1.3119343e-09
4.131196e-08
2.8504286e-07
-1.3114482e-09
4.2337837e-08
3.0448438e-07
-1.8616378e-09
4.1311751e-08
2.8504321e-07
4.3279843e-08
2.2671722e-07
3.3014511e-14
2.1698427e-09
1.8446255e-07
-2.0921562e-13
2.8534924e-08
1.5165935e-09
2.3350272e-07
2.4473155e-08
-1.51615e-09
2.5037991e-07
2.6223484e-08
-2.1695084e-09
2.3350263e-07
2.447309e-08
1.8446291e-07
4.8458302e-14
2.8534735e-08
-4.025721e-10
9.6929063e-09
5.6073891e-08
2.3896687e-14
-2.1499744e-10
1.3289315e-08
7.4248162e-08
2.1495258e-10
1.5031369e-08
8.1820473e-08
4.0254165e-10
1.3289194e-08
7.4248121e-08
9.6927803e-09
5.607379e-08
-7.8509283e-16
-5.9801555e-10
2.4636629e-08
1.5100875e-07
-6.1255507e-14
-4.0308826e-10
3.138732e-08
2.0166312e-07
4.0322589e-10
3.4343137e-08
2.2288155e-07
5.9814154e-10
3.1387168e-08
2.0166319e-07
2.4636453e-08
1.5100875e-07
1.1014523e-14
4.0438894e-10
3.4427149e-08
2.1316382e-07
-1.0957264e-13
2.1158593e-10
3.9651753e-08
2.8354306e-07
-2.113413e-10
4.1383122e-08
3.1020737e-07
-4.0420558e-10
3.9651641e-08
2.8354362e-07
3.4426934e-08
2.1316444e-07
2.5220163e-14
1.5526211e-09
3.1595391e-08
2.2799592e-07
-9.438891e-14
9.4404378e-10
3.1106664e-08
2.9419653e-07
-9.4378948e-10
3.145791e-08
3.1629743e-07
-1.5524467e-09
3.1106658e-08
2.9419685e-07
3.1595148e-08
2.2799652e-07
4.1644885e-14
1.9538342e-09
1.9400534e-07
-3.9228362e-14
2.0098806e-08
1.0160795e-09
2.4764188e-07
1.7905264e-08
-1.0159147e-09
2.6543801e-07
1.8431802e-08
-1.9537533e-09
2.4764184e-07
1.790528e-08
1.9400547e-07
6.3851191e-14
2.0098775e-08
3.1725211e-11
3.6383624e-09
5.2403726e-08
7.8885051e-14
1.3681772e-11
5.8125316e-09
6.8453677e-08
-1.3952885e-11
6.9135651e-09
7.4934545e-08
-3.1886455e-11
5.8123131e-09
6.8453744e-08
3.6381221e-09
5.2403794e-08
-1.0872307e-14
-1.0269901e-10
1.4303975e-08
1.4044575e-07
8.6547978e-14
-1.0893325e-10
1.9724999e-08
1.8775689e-07
1.0878119e-10
2.2241561e-08
2.0733585e-07
1.025312e-10
1.9724754e-08
1.87757e-07
1.430354e-08
1.4044587e-07
-7.2726493e-15
4.3564457e-10
2.4155415e-08
2.0287669e-07
4.859162e-14
2.8997126e-10
3.0046147e-08
2.7336759e-07
-2.9007053e-10
3.2326226e-08
3.0070275e-07
-4.3573225e-10
3.0046114e-08
2.7336793e-07
2.4155163e-08
2.0287708e-07
5.5708796e-15
1.5229058e-09
2.5567393e-08
2.2506099e-07
5.3863636e-14
8.9048266e-10
2.7479024e-08
2.9739607e-07
-8.9059398e-10
2.8090137e-08
3.2231459e-07
-1.5230273e-09
2.74791e-08
2.973963e-07
2.5567271e-08
2.2506137e-07
1.1022742e-14
2.1119168e-09
1.9950088e-07
9.0665102e-14
1.7959841e-08
1.0479997e-09
2.5923979e-07
1.694503e-08
-1.0481865e-09
2.7860204e-07
1.702229e-08
-2.1121033e-09
2.5923981e-07
1.6945054e-08
1.9950085e-07
1.0739535e-14
1.7959775e-08
9.0582983e-11
1.722682e-09
5.0590398e-08
6.3170808e-14
9.7463071e-11
2.473863e-09
6.5972936e-08
-9.7626797e-11
3.0685181e-09
7.2061119e-08
-9.0717845e-11
2.4738447e-09
6.5972992e-08
1.7226243e-09
5.0590469e-08
-1.5009376e-14
5.7329062e-11
8.2779842e-09
1.33833e-07
1.2236316e-13
2.9592168e-12
1.1813114e-08
1.7847202e-07
-3.2075266e-12
1.3713782e-08
1.9669675e-07
-5.7513172e-11
1.1813083e-08
1.7847207e-07
8.2779063e-09
1.338331e-07
-2.1409637e-14
3.1130115e-10
1.642004e-08
1.9442322e-07
1.1542725e-13
1.655596e-10
2.1693867e-08
2.6363258e-07
-1.6578071e-10
2.3860732e-08
2.9088714e-07
-3.1147132e-10
2.1694002e-08
2.636327e-07
1.6420133e-08
1.944234e-07
-1.4020626e-14
1.1793349e-09
1.971875e-08
2.2058284e-07
1.0535816e-13
6.8543355e-10
2.2953122e-08
2.9663072e-07
-6.8558838e-10
2.3890476e-08
3.2365587e-07
-1.1794904e-09
2.2953349e-08
2.9663086e-07
1.9718968e-08
2.2058306e-07
-9.4480696e-15
1.8427613e-09
2.0194936e-07
1.0814912e-13
1.5427407e-08
9.5159467e-10
2.6740807e-07
1.5676014e-08
-9.5170357e-10
2.887414e-07
1.5654427e-08
-1.8429002e-09
2.6740819e-07
1.5676168e-08
2.0194936e-07
-1.2105757e-14
1.5427574e-08
3.2010629e-11
9.9493789e-10
4.956341e-08
4.0239087e-14
6.4653944e-11
1.2454498e-09
6.4694845e-08
-6.4767125e-11
1.523501e-09
7.0667041e-08
-3.2095284e-11
1.2454514e-09
6.4694871e-08
9.9492051e-10
4.9563473e-08
-1.7383684e-14
6.7276774e-11
5.0478831e-09
1.2971267e-07
1.1492301e-13
4.0857211e-11
7.2664255e-09
1.7247746e-07
-4.1204309e-11
8.5416466e-09
1.8976067e-07
-6.7474772e-11
7.2663439e-09
1.7247745e-07
5.0478364e-09
1.2971274e-07
-3.0801411e-14
2.2302493e-10
1.1070597e-08
1.8817735e-07
1.3681973e-13
7.6191175e-11
1.5398415e-08
2.5564743e-07
-7.649933e-11
1.7144871e-08
2.8243661e-07
-2.232441e-10
1.5398422e-08
2.5564737e-07
1.107063e-08
1.8817739e-07
-2.7165703e-14
8.7401397e-10
1.4567396e-08
2.1621189e-07
1.344573e-13
4.5036186e-10
1.8212229e-08
2.9424057e-07
-4.5059125e-10
1.9075003e-08
3.226267e-07
-8.7422249e-10
1.8212364e-08
2.9424056e-07
1.4567568e-08
2.1621192e-07
-2.0967834e-14
1.4846888e-09
2.0275366e-07
1.3863336e-13
1.2278272e-08
7.4840851e-10
2.7292212e-07
1.3434465e-08
-7.4858784e-10
2.9598495e-07
1.3328444e-08
-1.4848765e-09
2.7292227e-07
1.343457e-08
2.0275364e-07
-2.0023118e-14
1.2278438e-08
-7.1547323e-12
6.5164694e-10
4.8918901e-08
1.7938056e-14
2.7785363e-11
7.7468828e-10
6.3885218e-08
-2.787161e-11
9.3239628e-10
6.9790303e-08
7.0874526e-12
7.7468154e-10
6.3885232e-08
6.5163491e-10
4.8918949e-08
-2.184219e-14
4.9918192e-11
3.2811827e-09
1.2703313e-07
8.4567208e-14
4.2053148e-11
4.7749972e-09
1.6848502e-07
-4.2341049e-11
5.6778183e-09
1.8509965e-07
-5.0084465e-11
4.7749117e-09
1.6848497e-07
3.2811765e-09
1.2703316e-07
-4.4588455e-14
1.855469e-10
7.6961732e-09
1.8357669e-07
1.2321549e-13
4.9914125e-11
1.1183702e-08
2.4937436e-07
-5.0278334e-11
1.2619584e-08
2.7559504e-07
-1.8577663e-10
1.1183644e-08
2.4937414e-07
7.6962353e-09
1.8357661e-07
-4.8551279e-14
6.9288155e-10
1.0855342e-08
2.1235972e-07
1.2383885e-13
3.1478112e-10
1.4495011e-08
2.9130736e-07
-3.1507981e-10
1.5264481e-08
3.2061167e-07
-6.931103e-10
1.4495082e-08
2.9130715e-07
1.0855514e-08
2.1235959e-07
-4.7143063e-14
1.2268272e-09
2.0264874e-07
1.2413265e-13
9.7333128e-09
5.9377577e-10
2.7668204e-07
1.1368142e-08
-5.9403312e-10
3.0127458e-07
1.1162664e-08
-1.2270352e-09
2.7668217e-07
1.136819e-08
2.0264873e-07
-5.3634572e-14
9.7334483e-09
-1.9101117e-11
4.7486681e-10
4.8463139e-08
-2.3569443e-15
1.2382228e-11
5.7844781e-10
6.327529e-08
-1.2423896e-11
6.9372844e-10
6.9121384e-08
1.9052845e-11
5.7844409e-10
6.3275314e-08
4.7484391e-10
4.8463182e-08
-2.1747419e-14
3.7150672e-11
2.306078e-09
1.2516473e-07
4.3251077e-14
3.7704097e-11
3.3847447e-09
1.6567818e-07
-3.7946779e-11
4.0421953e-09
1.8182684e-07
-3.7277657e-11
3.3846363e-09
1.6567811e-07
2.3060462e-09
1.2516474e-07
-4.9900492e-14
1.6544349e-10
5.6372413e-09
1.8008e-07
8.8056184e-14
4.8265446e-11
8.5108175e-09
2.4436547e-07
-4.860303e-11
9.7013667e-09
2.7003274e-07
-1.6565394e-10
8.5106792e-09
2.4436515e-07
5.6372251e-09
1.8007984e-07
-6.037224e-14
5.8317362e-10
8.4291618e-09
2.0898453e-07
9.7001056e-14
2.4191604e-10
1.1968101e-08
2.8819134e-07
-2.4223606e-10
1.2687299e-08
3.1810989e-07
-5.8339922e-10
1.1968069e-08
2.8819093e-07
8.4292105e-09
2.0898427e-07
-6.3337067e-14
1.0412845e-09
2.020043e-07
1.0097237e-13
8.0322245e-09
5.0271212e-10
2.7918812e-07
1.0000599e-08
-5.0303135e-10
3.0521109e-07
9.7565438e-09
-1.0415096e-09
2.7918813e-07
1.0000597e-08
2.0200422e-07
-7.4159894e-14
8.0322852e-09
-2.2577678e-11
3.7937864e-10
4.810636e-08
-2.1169507e-14
6.6449392e-12
4.4835093e-10
6.2797719e-08
-6.6591168e-12
5.4064847e-10
6.8594041e-08
2.2567621e-11
4.4833289e-10
6.2797756e-08
3.793513e-10
4.8106416e-08
-1.6332341e-14
3.1906239e-11
1.7324231e-09
1.2377978e-07
4.2971849e-15
2.7158414e-11
2.5280187e-09
1.6360326e-07
-2.7307574e-11
3.005494e-09
1.7941646e-07
-3.1983433e-11
2.5279064e-09
1.6360322e-07
1.732352e-09
1.2377981e-07
-5.0020764e-14
1.5667834e-10
4.3115782e-09
1.7734412e-07
4.6333182e-14
5.4130013e-11
6.7057781e-09
2.4029026e-07
-5.442321e-11
7.6955391e-09
2.6545125e-07
-1.5686121e-10
6.7055753e-09
2.4028992e-07
4.3114479e-09
1.7734395e-07
-6.7982506e-14
4.9478569e-10
6.8016733e-09
2.0599959e-07
6.8002518e-14
2.0055531e-10
1.0140435e-08
2.8505092e-07
-2.0092151e-10
1.0870784e-08
3.1533612e-07
-4.9502342e-10
1.0140271e-08
2.8505034e-07
6.8015397e-09
2.0599923e-07
-7.6157446e-14
8.9396223e-10
2.0102293e-07
8.9915085e-14
6.8889947e-09
4.4635387e-10
2.8072321e-07
9.0529541e-09
-4.4680737e-10
3.0807872e-07
8.8963151e-09
-8.9424949e-10
2.8072299e-07
9.0528533e-09
2.0102271e-07
-8.989488e-14
6.8888987e-09
-1.8921941e-11
2.9631692e-10
4.7829e-08
-3.3730942e-14
4.4450467e-12
3.6668738e-10
6.2407666e-08
-4.4247578e-12
4.3764834e-10
6.8165265e-08
1.8951311e-11
3.6666956e-10
6.2407712e-08
2.9631732e-10
4.7829059e-08
-7.4540941e-15
1.9978145e-11
1.3354489e-09
1.2272071e-07
-4.1143834e-14
2.0487379e-11
1.9940692e-09
1.6197537e-07
-2.0564727e-11
2.3449211e-09
1.7755024e-07
-2.0001485e-11
1.9939655e-09
1.6197536e-07
1.3354007e-09
1.2272076e-07
-3.4700957e-14
1.3370826e-10
3.377959e-09
1.7516791e-07
-4.7924113e-15
5.1394855e-11
5.3976464e-09
2.36969e-07
-5.1591099e-11
6.2195109e-09
2.6167965e-07
-1.3382312e-10
5.3974466e-09
2.3696868e-07
3.3778228e-09
1.7516777e-07
-6.0418188e-14
4.1308735e-10
5.5707719e-09
2.0339367e-07
2.0375145e-14
1.6740891e-10
8.6525349e-09
2.8204171e-07
-1.6770269e-10
9.3945461e-09
3.124962e-07
-4.1327148e-10
8.652329e-09
2.8204103e-07
5.5705808e-09
2.0339328e-07
-7.4212883e-14
7.5732814e-10
1.9986123e-07
4.897402e-14
5.9750896e-09
4.0025212e-10
2.814952e-07
8.2376298e-09
-4.0066588e-10
3.1007008e-07
8.2041044e-09
-7.5758011e-10
2.8149473e-07
8.2375052e-09
1.9986086e-07
-8.641846e-14
5.9749321e-09
-1.2554538e-11
2.2994218e-10
4.7611654e-08
-4.1542345e-14
3.2947388e-12
2.8945263e-10
6.2102366e-08
-3.2386469e-12
3.3942544e-10
6.7832374e-08
1.262344e-11
2.8942451e-10
6.2102427e-08
2.2995745e-10
4.7611724e-08
2.4825845e-15
1.7956934e-11
1.0443115e-09
1.2188845e-07
-6.0576757e-14
1.7277934e-11
1.5632316e-09
1.6070228e-07
-1.7261373e-11
1.8188934e-09
1.7610532e-07
-1.7935108e-11
1.5631497e-09
1.6070231e-07
1.0442686e-09
1.2188854e-07
-2.0554313e-14
1.1884673e-10
2.666852e-09
1.7342657e-07
-4.4561986e-14
4.898128e-11
4.3484768e-09
2.3425362e-07
-4.9081068e-11
5.024738e-09
2.5857187e-07
-1.1889629e-10
4.3482842e-09
2.3425336e-07
2.666697e-09
1.7342649e-07
-4.5696101e-14
3.4834273e-10
4.5637413e-09
2.0114846e-07
-1.9428841e-14
1.4188863e-10
7.3436947e-09
2.7925295e-07
-1.4210495e-10
8.0677598e-09
3.0973718e-07
-3.4847629e-10
7.3434472e-09
2.7925224e-07
4.5634891e-09
2.0114808e-07
-6.4305528e-14
6.363735e-10
1.9862706e-07
2.3315429e-14
5.1615229e-09
3.5257327e-10
2.8168968e-07
7.4330103e-09
-3.5294726e-10
3.1134095e-07
7.502419e-09
-6.3659938e-10
2.81689e-07
7.4328298e-09
1.9862654e-07
-7.6734175e-14
5.1612901e-09
-8.789041e-12
1.7233205e-10
4.7448164e-08
-5.1947608e-14
1.9530285e-12
2.1863628e-10
6.1872989e-08
-1.8458437e-12
2.5261931e-10
6.7583556e-08
8.9146552e-12
2.1862028e-10
6.1873048e-08
1.723993e-10
4.7448224e-08
1.6823396e-14
1.7970711e-11
8.0017907e-10
1.2124272e-07
-8.7666479e-14
1.4419344e-11
1.2022515e-09
1.5972222e-07
-1.4261159e-11
1.3947322e-09
1.7499189e-07
-1.7872902e-11
1.2022669e-09
1.5972228e-07
8.0023401e-10
1.2124283e-07
3.7415429e-15
1.0818389e-10
2.0959759e-09
1.7202267e-07
-8.5474569e-14
4.6357518e-11
3.4794665e-09
2.3203823e-07
-4.6304659e-11
4.0389082e-09
2.5602036e-07
-1.0812506e-10
3.4794003e-09
2.3203805e-07
2.0959644e-09
1.7202266e-07
-1.9596557e-14
3.0072443e-10
3.7228889e-09
1.992209e-07
-7.7394633e-14
1.2145437e-10
6.1918464e-09
2.7671984e-07
-1.2147498e-10
6.8752964e-09
3.0714372e-07
-3.0072997e-10
6.1917016e-09
2.7671919e-07
3.7227768e-09
1.9922057e-07
-3.8513699e-14
5.3790723e-10
1.9738506e-07
-5.0783505e-14
4.4270307e-09
3.07177e-10
2.8145892e-07
6.6533427e-09
-3.0728793e-10
3.1201153e-07
6.8191763e-09
-5.3797117e-10
2.8145816e-07
6.6532235e-09
1.973845e-07
-4.6678481e-14
4.4268936e-09
-8.035193e-12
1.2714657e-10
4.7329112e-08
-5.8939744e-14
4.7171906e-13
1.5910747e-10
6.1705376e-08
-3.1317852e-13
1.8203111e-10
6.740231e-08
8.2128549e-12
1.5910263e-10
6.1705421e-08
1.2726333e-10
4.7329144e-08
3.021621e-14
1.5552123e-11
6.0588232e-10
1.2074855e-07
-1.1214661e-13
1.0758303e-11
9.248426e-10
1.5896128e-07
-1.0444093e-11
1.0679317e-09
1.7412719e-07
-1.5373708e-11
9.2496292e-10
1.5896135e-07
6.0604314e-10
1.2074864e-07
3.3952767e-14
9.6542364e-11
1.6440416e-09
1.708881e-07
-1.2282157e-13
4.2750244e-11
2.7902181e-09
2.3022665e-07
-4.2535048e-11
3.2503517e-09
2.5392322e-07
-9.6364488e-11
2.7902861e-09
2.3022656e-07
1.6441819e-09
1.7088814e-07
1.5010876e-14
2.6049179e-10
3.0335379e-09
1.9757104e-07
-1.2400812e-13
1.0621052e-10
5.2113836e-09
2.7445296e-07
-1.0602367e-10
5.8475127e-09
3.0475879e-07
-2.6035548e-10
5.2113484e-09
2.7445246e-07
3.0335817e-09
1.9757083e-07
-6.1134985e-15
4.5658451e-10
1.9617782e-07
-1.2219244e-13
3.7843202e-09
2.626563e-10
2.809465e-07
5.9177309e-09
-2.6248422e-10
3.1221144e-07
6.1727446e-09
-4.5646817e-10
2.8094583e-07
5.9176718e-09
1.9617733e-07
-1.3440958e-14
3.7843012e-09
-7.6876167e-12
9.2184516e-11
4.7244677e-08
-6.1587164e-14
-5.0385522e-13
1.1304537e-10
6.1585148e-08
7.0631274e-13
1.2907033e-10
6.7272032e-08
7.9091363e-12
1.1305227e-10
6.1585167e-08
9.2356959e-11
4.7244656e-08
4.1517594e-14
1.2596994e-11
4.5872501e-10
1.2036954e-07
-1.3114134e-13
7.5335198e-12
7.0972242e-10
1.5836966e-07
-7.038278e-12
8.1888896e-10
1.7345195e-07
-1.2338335e-11
7.0998098e-10
1.5836973e-07
4.5901765e-10
1.2036958e-07
6.2974757e-14
8.4152001e-11
1.2957252e-09
1.699671e-07
-1.5684053e-13
3.8869596e-11
2.2414427e-09
2.2874022e-07
-3.8468272e-11
2.6279561e-09
2.521915e-07
-8.3838322e-11
2.241701e-09
2.2874021e-07
1.2960838e-09
1.6996719e-07
5.2724781e-14
2.2823404e-10
2.4816424e-09
1.9615706e-07
-1.7350606e-13
9.2613425e-11
4.402015e-09
2.7242801e-07
-9.2169021e-11
4.984598e-09
3.0258694e-07
-2.2791735e-10
4.4021648e-09
2.7242775e-07
2.4819398e-09
1.9615701e-07
4.0520369e-14
3.9124698e-10
1.9502875e-07
-2.0884422e-13
3.239676e-09
2.2495392e-10
2.8024903e-07
5.2657881e-09
-2.2438922e-10
3.1205556e-07
5.5898294e-09
-3.9087998e-10
2.8024862e-07
5.2658674e-09
1.9502848e-07
3.7606718e-14
3.2398763e-09
-6.9902278e-12
6.3685917e-11
4.7188038e-08
-5.5509838e-14
-1.1640465e-12
7.7290063e-11
6.1502034e-08
1.3934043e-12
8.8462044e-11
6.7181014e-08
7.2273503e-12
7.7310999e-11
6.1502021e-08
6.3878678e-11
4.7187956e-08
4.862464e-14
1.0110467e-11
3.4202014e-10
1.2008124e-07
-1.3542838e-13
5.1037259e-12
5.4164486e-10
1.5791033e-07
-4.4314169e-12
6.2589476e-10
1.7292406e-07
-9.7963103e-12
5.4201516e-10
1.5791038e-07
3.4237703e-10
1.200812e-07
8.9121176e-14
7.2802275e-11
1.0196251e-09
1.6921687e-07
-1.7485218e-13
3.4977338e-11
1.8067273e-09
2.2751296e-07
-3.4418439e-11
2.1327154e-09
2.5075408e-07
-7.237553e-11
1.807133e-09
2.2751305e-07
1.0201226e-09
1.6921698e-07
9.0125445e-14
2.0048802e-10
2.0334318e-09
1.9494297e-07
-2.0339865e-13
8.1121249e-11
3.7253281e-09
2.7062878e-07
-8.0469276e-11
4.2543981e-09
3.0062685e-07
-2.0002025e-10
3.7256256e-09
2.7062881e-07
2.033918e-09
1.9494312e-07
8.3629378e-14
3.3639204e-10
1.9395065e-07
-2.6679165e-13
2.7754055e-09
1.9333125e-10
2.7943731e-07
4.6801024e-09
-1.9245617e-10
3.1164713e-07
5.0486187e-09
-3.3581828e-10
2.7943731e-07
4.6802982e-09
1.939507e-07
8.8810935e-14
2.7757894e-09
-6.4955507e-12
4.1903705e-11
4.7152676e-08
-4.6627587e-14
-1.5936112e-12
5.0392975e-11
6.1446739e-08
1.8448368e-12
5.7733797e-11
6.7119846e-08
6.7228853e-12
5.0453226e-11
6.1446696e-08
4.2092576e-11
4.7152539e-08
4.7766502e-14
7.9643965e-12
2.4863439e-10
1.1986669e-07
-1.3075284e-13
2.9005213e-12
4.0782656e-10
1.5755796e-07
-2.1864483e-12
4.7059933e-10
1.7251627e-07
-7.6062962e-12
4.0826205e-10
1.5755799e-07
2.4902178e-10
1.1986656e-07
1.0386103e-13
6.2464641e-11
7.9677996e-10
1.6860645e-07
-1.8042426e-13
3.0500377e-11
1.4541068e-09
2.2649865e-07
-2.9822563e-11
1.7231721e-09
2.4956183e-07
-6.1958032e-11
1.4546229e-09
2.2649882e-07
7.9736174e-10
1.6860656e-07
1.209924e-13
1.7647133e-10
1.6635717e-09
1.9389993e-07
-2.1548518e-13
7.3783908e-11
3.1493374e-09
2.6903624e-07
-7.2969022e-11
3.6339729e-09
2.988628e-07
-1.758842e-10
3.1497643e-09
2.6903659e-07
1.6641959e-09
1.9390027e-07
1.2529566e-13
2.9067554e-10
1.9294958e-07
-2.9475317e-13
2.3742642e-09
1.687174e-10
2.7855943e-07
4.1491861e-09
-1.6758571e-10
3.110696e-07
4.5478039e-09
-2.8993514e-10
2.7855992e-07
4.1495039e-09
1.9295002e-07
1.4287318e-13
2.3748011e-09
-6.0430111e-12
2.3217596e-11
4.7135524e-08
-2.3764146e-14
-1.7459236e-12
2.6815873e-11
6.1415629e-08
1.8849998e-12
3.0901213e-11
6.7085317e-08
6.2107708e-12
2.6856383e-11
6.1415517e-08
2.33689e-11
4.7135339e-08
3.9744458e-14
6.2583314e-12
1.6966692e-10
1.1971407e-07
-1.0069938e-13
1.4227455e-12
2.9494421e-10
1.5729468e-07
-9.1051123e-13
3.4124896e-10
1.7220826e-07
-5.9547088e-12
2.9527357e-10
1.5729462e-07
1.7000419e-10
1.1971386e-07
1.0067498e-13
5.3343799e-11
6.1048161e-10
1.6811245e-07
-1.6047872e-13
2.6138453e-11
1.1594959e-09
2.2566131e-07
-2.5404384e-11
1.38268e-09
2.4857194e-07
-5.2835422e-11
1.1599945e-09
2.2566154e-07
6.1103927e-10
1.6811256e-07
1.3084782e-13
1.5546835e-10
1.3508009e-09
1.9300434e-07
-1.9984695e-13
6.7092188e-11
2.652596e-09
2.6763152e-07
-6.62164e-11
3.096042e-09
2.9728275e-07
-1.548456e-10
2.6530529e-09
2.6763216e-07
1.3514463e-09
1.9300488e-07
1.4605512e-13
2.517959e-10
1.9202703e-07
-2.7881222e-13
2.0218353e-09
1.4746052e-10
2.7765303e-07
3.6633275e-09
-1.462404e-10
3.1038249e-07
4.0768547e-09
-2.5100071e-10
2.7765404e-07
3.6636977e-09
1.9202787e-07
1.7633858e-13
2.0224241e-09
-5.5670599e-12
6.3387369e-12
4.7134751e-08
-1.4810078e-15
-1.8744014e-12
5.1599037e-12
6.1406768e-08
1.9615345e-12
6.383993e-12
6.7075111e-08
5.6674849e-12
5.1897741e-12
6.1406623e-08
6.4336961e-12
4.7134543e-08
3.2465767e-14
4.8214143e-12
1.0355783e-10
1.1961204e-07
-6.0745442e-14
4.0961058e-13
1.9932975e-10
1.5710496e-07
2.4288098e-14
2.3287785e-10
1.7198217e-07
-4.6012128e-12
1.9959087e-10
1.5710486e-07
1.0379042e-10
1.1961179e-07
9.0042884e-14
4.5318009e-11
4.5529791e-10
1.6771549e-07
-1.2409373e-13
2.205874e-11
9.1203744e-10
2.2497189e-07
-2.1369039e-11
1.0973671e-09
2.4775089e-07
-4.4858842e-11
9.1247662e-10
2.2497216e-07
4.5576001e-10
1.6771559e-07
1.268288e-13
1.3663036e-10
1.0876074e-09
1.9223556e-07
-1.6386481e-13
6.0508687e-11
2.224146e-09
2.6639553e-07
-5.9678149e-11
2.6273337e-09
2.9587297e-07
-1.3604006e-10
2.224582e-09
2.6639642e-07
1.0882002e-09
1.9223624e-07
1.5041712e-13
2.1873576e-10
1.9118157e-07
-2.2959428e-13
1.7145645e-09
1.2895263e-10
2.7674543e-07
3.2215369e-09
-1.2777441e-10
3.0962592e-07
3.640632e-09
-2.1797394e-10
2.7674689e-07
3.2219285e-09
1.9118276e-07
1.9054391e-13
1.7151407e-09
-5.1474257e-12
-7.3978735e-12
4.7147271e-08
2.6637936e-14
-1.9343041e-12
-1.1726916e-11
6.1415237e-08
1.9207977e-12
-1.1906282e-11
6.7083198e-08
5.1663969e-12
-1.1708501e-11
6.1415101e-08
-7.3777972e-12
4.7147056e-08
5.7645262e-14
3.4379138e-12
4.7539306e-11
1.1955368e-07
-1.2186508e-14
-5.8634058e-13
1.1909009e-10
1.5697816e-07
8.5703074e-13
1.4276378e-10
1.7182608e-07
-3.3351785e-12
1.1927494e-10
1.5697804e-07
4.7612177e-11
1.1955339e-07
1.0971052e-13
3.8200022e-11
3.2356458e-10
1.6740136e-07
-7.4453762e-14
1.8388833e-11
7.0265222e-10
2.2440814e-07
-1.7843742e-11
8.5640117e-10
2.4707352e-07
-3.7840251e-11
7.0298578e-10
2.2440842e-07
3.2382228e-10
1.6740144e-07
1.2691264e-13
1.196409e-10
8.6326946e-10
1.9157632e-07
-1.1223911e-13
5.4370653e-11
1.8526998e-09
2.6531076e-07
-5.3705746e-11
2.2169675e-09
2.9462049e-07
-1.1916027e-10
1.8530508e-09
2.653118e-07
8.6368737e-10
1.9157709e-07
1.4423337e-13
1.890709e-10
1.9040901e-07
-1.5291629e-13
1.4469058e-09
1.1261616e-10
2.7585548e-07
2.8191013e-09
-1.1165989e-10
3.0883246e-07
3.2347026e-09
-1.884571e-10
2.7585729e-07
2.8194503e-09
1.9041046e-07
1.7734444e-13
1.4473631e-09
-5.0379745e-12
-1.8219831e-11
4.7170455e-08
4.9642132e-14
-1.8966344e-12
-2.6227215e-11
6.1438371e-08
1.8100337e-12
-2.757131e-11
6.7107075e-08
4.9356921e-12
-2.6243943e-11
6.1438242e-08
-1.8305038e-11
4.7170302e-08
-1.2998939e-14
2.8775326e-12
-5.2780926e-13
1.1953308e-07
4.2652411e-14
-1.0004699e-12
5.2098934e-11
1.5690372e-07
1.2265083e-12
6.802874e-11
1.7172825e-07
-2.7207412e-12
5.2155314e-11
1.5690357e-07
-5.1353693e-13
1.1953285e-07
2.1530841e-14
3.1552413e-11
2.1372684e-10
1.6715558e-07
-9.0085509e-15
1.4868677e-11
5.2679347e-10
2.2395013e-07
-1.4539147e-11
6.5416025e-10
2.4651679e-07
-3.1361797e-11
5.2698647e-10
2.239504e-07
2.1381711e-10
1.6715566e-07
6.7236096e-14
1.0389479e-10
6.7458597e-10
1.9101161e-07
-4.1129506e-14
4.8378663e-11
1.5331531e-09
2.6435992e-07
-4.7949375e-11
1.8609262e-09
2.9351006e-07
-1.0358334e-10
1.5333893e-09
2.6436103e-07
6.7480222e-10
1.9101242e-07
9.7341392e-14
1.6298466e-10
1.8970696e-07
-6.0340653e-14
1.2137126e-09
9.8219691e-11
2.7499605e-07
2.4573518e-09
-9.7573917e-11
3.0802649e-07
2.8627017e-09
-1.6258321e-10
2.7499806e-07
2.4576293e-09
1.8970855e-07
1.3108589e-13
1.2139982e-09
-4.9440267e-12
-2.7719693e-11
4.720306e-08
6.9362437e-14
-1.9220622e-12
-3.8987954e-11
6.147434e-08
1.7406457e-12
-4.1543346e-11
6.7144958e-08
4.7693985e-12
-3.9032168e-11
6.1474242e-08
-2.7860505e-11
4.7202956e-08
-3.6303871e-14
1.2409108e-12
-3.7505245e-11
1.1954153e-07
9.5351795e-14
-1.6338097e-12
-6.4399836e-12
1.5687405e-07
1.5098486e-12
2.5447594e-12
1.7168102e-07
-1.3748535e-12
-6.4835249e-12
1.5687391e-07
-3.7719007e-11
1.1954136e-07
-2.410136e-14
2.6668215e-11
1.2186736e-10
1.6696948e-07
5.5262258e-14
1.2154099e-11
3.7547529e-10
2.2358273e-07
-1.210679e-11
4.8024612e-10
2.4606335e-07
-2.6653407e-11
3.7549562e-10
2.2358297e-07
1.2169518e-10
1.6696958e-07
1.8208187e-14
9.0442058e-11
5.132204e-10
1.9052979e-07
3.116799e-14
4.3146263e-11
1.2542496e-09
2.6352844e-07
-4.3024444e-11
1.5480972e-09
2.9252838e-07
-9.034362e-11
1.2543241e-09
2.6352952e-07
5.1315956e-10
1.9053056e-07
4.3623634e-14
1.4048076e-10
1.8907144e-07
4.7790542e-14
1.0082061e-09
8.5893608e-11
2.7417558e-07
2.1293024e-09
-8.5672827e-11
3.0722603e-07
2.5201192e-09
-1.4035906e-10
2.7417762e-07
2.1294477e-09
1.8907303e-07
6.1207215e-14
1.0082576e-09
-4.8003165e-12
-3.5938469e-11
4.7243719e-08
8.0711994e-14
-1.8897759e-12
-4.9477779e-11
6.1520909e-08
1.633137e-12
-5.2750877e-11
6.7194187e-08
4.5591737e-12
-4.9534192e-11
6.1520852e-08
-3.6115738e-11
4.7243687e-08
-5.6251426e-14
-1.4382679e-13
-7.1158647e-11
1.1957676e-07
1.3528531e-13
-2.0565116e-12
-5.5459101e-11
1.5688194e-07
1.7453368e-12
-5.0474125e-11
1.7167495e-07
-1.5011666e-13
-5.5563212e-11
1.5688184e-07
-7.151474e-11
1.1957668e-07
-7.294916e-14
2.2009066e-11
4.2310519e-11
1.6683389e-07
1.1330405e-13
9.5082318e-12
2.4697421e-10
2.232928e-07
-9.7556718e-12
3.3361396e-10
2.4569853e-07
-2.2178093e-11
2.4683889e-10
2.2329299e-07
4.1913462e-11
1.6683401e-07
-3.809326e-14
7.7694552e-11
3.7477383e-10
1.9011954e-07
9.7535829e-14
3.7997542e-11
1.0127279e-09
2.6280239e-07
-3.818489e-11
1.2753185e-09
2.9166286e-07
-7.7816067e-11
1.0126451e-09
2.6280335e-07
3.7446234e-10
1.9012022e-07
-1.5160262e-14
1.2063954e-10
1.8849767e-07
1.3678043e-13
8.2777536e-10
7.5084281e-11
2.7339877e-07
1.8351025e-09
-7.5285669e-11
3.0644436e-07
2.20736e-09
-1.2079718e-10
2.7340067e-07
1.8351086e-09
1.8849912e-07
-1.8521687e-14
8.2759295e-10
-4.6581155e-12
-4.2999065e-11
4.7291291e-08
8.4838812e-14
-1.8176962e-12
-5.8761752e-11
6.157683e-08
1.5145366e-12
-6.2815311e-11
6.725367e-08
4.378622e-12
-5.883023e-11
6.1576818e-08
-4.3198481e-11
4.7291335e-08
-7.0494188e-14
-1.2210805e-12
-9.9676752e-11
1.1963449e-07
1.6657597e-13
-2.3348682e-12
-9.8148195e-11
1.5692244e-07
1.8619133e-12
-9.8027468e-11
1.7170596e-07
7.9546443e-13
-9.8292597e-11
1.5692237e-07
-1.0013734e-10
1.1963453e-07
-1.1715467e-13
1.7984422e-11
-2.6135787e-11
1.667422e-07
1.6431903e-13
7.5378135e-12
1.3515178e-10
2.2306995e-07
-8.0662833e-12
2.0516208e-10
2.4541094e-07
-1.8316508e-11
1.3486725e-10
2.2307008e-07
-2.6700632e-11
1.6674236e-07
-9.7487832e-14
6.6253076e-11
2.5446655e-10
1.8977253e-07
1.5397418e-13
3.3264801e-11
8.0043302e-10
2.621701e-07
-3.3752064e-11
1.0338461e-09
2.9090119e-07
-6.6593428e-11
8.0018289e-10
2.6217088e-07
2.5390562e-10
1.897731e-07
-8.1472176e-14
1.0322508e-10
1.8798144e-07
2.1005765e-13
6.6725902e-10
6.5315966e-11
2.726681e-07
1.5690132e-09
-6.5952831e-11
3.0568965e-07
1.919831e-09
-1.0366356e-10
2.7266972e-07
1.5688419e-09
1.8798265e-07
-1.0517065e-13
6.6682269e-10
-4.5840352e-12
-4.8729156e-11
4.7344522e-08
8.2786884e-14
-1.7584247e-12
-6.6378939e-11
6.1640384e-08
1.4394921e-12
-7.0993579e-11
6.7321467e-08
4.3034919e-12
-6.6470308e-11
6.1640425e-08
-4.8904442e-11
4.7344622e-08
-7.8416743e-14
-2.4396885e-12
-1.2310158e-10
1.1971111e-07
1.9417433e-13
-2.6248271e-12
-1.3395843e-10
1.5699021e-07
2.029131e-12
-1.3711966e-10
1.7176744e-07
1.7839318e-12
-1.3404019e-10
1.5699019e-07
-1.2367724e-10
1.1971125e-07
-1.5602973e-13
1.4156303e-11
-8.3128621e-11
1.6668787e-07
2.0018642e-13
5.4598069e-12
3.9932793e-11
2.2290475e-07
-6.2323461e-12
9.5923237e-11
2.4518959e-07
-1.4605179e-11
3.9585048e-11
2.2290483e-07
-8.3839318e-11
1.6668806e-07
-1.4783652e-13
5.6222843e-11
1.5118689e-10
1.8948179e-07
1.9624162e-13
2.8665093e-11
6.1603912e-10
2.6162155e-07
-2.9406332e-11
8.2214541e-10
2.9023304e-07
-5.6724536e-11
6.1566807e-10
2.6162211e-07
1.504627e-10
1.8948221e-07
-1.3680478e-13
8.8237152e-11
1.8751803e-07
2.5619991e-13
5.2610418e-10
5.6913313e-11
2.7198474e-07
1.3307172e-09
-5.7879329e-11
3.0496879e-07
1.6577923e-09
-8.8878323e-11
2.7198599e-07
1.3304014e-09
1.8751891e-07
-1.7512405e-13
5.2549506e-10
-4.4219698e-12
-5.3959985e-11
4.7402834e-08
7.0226986e-14
-1.6125019e-12
-7.3313018e-11
6.1710888e-08
1.3160247e-12
-7.7925382e-11
6.7396464e-08
4.1602058e-12
-7.3389876e-11
6.1710971e-08
-5.4118914e-11
4.740298e-08
-7.9027616e-14
-3.5784251e-12
-1.437967e-10
1.1980434e-07
1.8843837e-13
-2.6870381e-12
-1.6638767e-10
1.5708239e-07
2.0390308e-12
-1.702178e-10
1.71855e-07
2.7891464e-12
-1.6638802e-10
1.5708243e-07
-1.4445759e-10
1.1980456e-07
-1.8552336e-13
1.1053479e-11
-1.3335806e-10
1.6666617e-07
2.1052492e-13
4.2584953e-12
-4.6096787e-11
2.2279126e-07
-5.2278369e-12
4.0657792e-12
2.450248e-07
-1.1572062e-11
-4.6520805e-11
2.2279131e-07
-1.3417738e-10
1.666664e-07
-1.8841326e-13
4.7111574e-11
6.1340613e-11
1.8923976e-07
2.2458561e-13
2.3536904e-11
4.523619e-10
2.6114667e-07
-2.4431562e-11
6.3479154e-10
2.8965029e-07
-4.7728387e-11
4.5189396e-10
2.61147e-07
6.0490107e-11