/*--------------------------------*- C++ -*----------------------------------*\
| =========                 |                                                 |
| \\      /  F ield         | OpenFOAM: The Open Source CFD Toolbox           |
|  \\    /   O peration     | Version:  2.3.x                                 |
|   \\  /    A nd           | Web:      www.OpenFOAM.org                      |
|    \\/     M anipulation  |                                                 |
\*---------------------------------------------------------------------------*/
FoamFile
{
    version     2.0;
    format      ascii;
    class       volScalarField;
    location    "0.018";
    object      T;
}
// * * * * * * * * * * * * * * * * * * * * * * * * * * * * * * * * * * * * * //

dimensions      [0 0 0 1 0 0 0];

internalField   nonuniform List<scalar> 
10000
(
540.43414
498.16251
483.54488
498.16248
540.43411
345.75025
333.57957
330.1066
333.57956
345.75024
315.01498
312.64314
312.08072
312.64315
315.01499
310.63308
310.25541
310.1865
310.25541
310.63308
310.07342
310.02042
310.01435
310.02042
310.07342
757.00979
724.3336
710.49798
724.33369
757.00994
489.31182
437.88175
421.76712
437.88213
489.3124
354.92073
333.96795
328.97402
333.96896
354.92235
318.36042
313.52368
312.62046
313.52376
318.36064
311.42152
310.43273
310.30833
310.43274
311.4215
812.09344
796.28399
789.44561
796.28387
812.09327
582.17756
527.6285
507.34624
527.62795
582.17688
406.23346
369.29143
359.05335
369.2906
406.2323
334.52463
321.11294
318.42924
321.11226
334.52375
314.81403
311.52113
311.09956
311.52104
314.8127
829.70631
819.18035
815.18702
819.18018
829.706
640.84951
592.76143
573.60836
592.76065
640.84826
456.53933
407.42735
392.70818
407.42604
456.53699
355.62517
332.54774
327.50804
332.54703
355.62349
320.9931
313.7182
312.6994
313.71808
320.99216
837.58735
828.67565
825.38742
828.67564
837.58727
674.92563
634.90608
618.61538
634.90588
674.92518
498.44541
444.24732
426.68124
444.2467
498.44425
379.14162
346.95478
339.29737
346.95457
379.14092
329.54304
317.29347
315.32452
317.29366
329.54317
842.93471
834.70629
831.7021
834.70629
842.93463
696.92031
662.35785
648.62478
662.35773
696.91991
531.62655
476.53479
457.67525
476.53423
531.62553
402.61145
362.82758
352.67037
362.82709
402.61042
339.84886
322.133
318.98349
322.13273
339.84848
846.95864
839.31527
836.52548
839.31532
846.95863
712.62337
681.61419
669.58695
681.61426
712.62326
557.80859
504.00074
484.78873
504.00058
557.80817
424.62488
379.09942
366.65628
379.09917
424.62435
351.0399
327.87728
323.38472
327.87697
351.03965
850.13155
843.00599
840.4098
843.00611
850.13163
724.68857
696.20939
685.31805
696.20973
724.68879
578.86503
527.25947
508.2991
527.25979
578.86522
444.82408
395.25149
380.85085
395.25159
444.82416
362.68015
334.31226
328.37833
334.3121
362.6802
852.73814
846.06272
843.63151
846.06285
852.73826
734.46202
707.98636
697.91088
707.98679
734.46237
596.2864
547.17124
528.78435
547.17181
596.2868
463.28804
411.11487
395.11485
411.1151
463.28816
374.56353
341.36689
333.92825
341.36649
374.5631
854.95124
848.64325
846.34449
848.64338
854.9514
742.6855
717.82756
708.37229
717.82809
742.68605
611.1059
564.38235
546.68353
564.38327
611.10678
480.21876
426.54683
409.3082
426.54768
480.21966
386.59814
349.00722
340.04705
349.00748
386.59858
856.8586
850.87684
848.68779
850.87695
856.85872
749.73754
726.28581
717.34
726.28627
749.73798
623.92678
579.43247
562.44151
579.43335
623.92753
495.72578
441.39224
423.25847
441.39313
495.72656
398.61783
357.12846
346.67976
357.12866
398.61806
858.53199
852.83207
850.73604
852.83217
858.53209
755.89604
733.65434
725.14102
733.6548
755.89649
635.18915
592.7006
576.3826
592.70164
635.19008
509.93501
455.53789
436.8093
455.53926
509.93634
410.47331
365.6217
353.75398
365.62269
410.47454
860.01323
854.55697
852.54347
854.55702
860.01327
761.32548
740.12486
731.99217
740.12519
761.32574
645.16968
604.45557
588.76352
604.45643
645.17036
522.94833
468.88319
449.80884
468.88445
522.94946
422.03804
374.35611
361.16984
374.35706
422.0392
861.33852
856.09588
854.15669
856.0959
861.33852
766.1639
745.87292
738.07775
745.87314
766.16404
654.09752
614.96795
599.84715
614.96871
654.0981
534.89046
481.42205
462.19648
481.42337
534.89169
433.23641
383.22683
368.84778
383.22813
433.23803
862.53611
857.48235
855.61082
857.4823
862.53602
770.52093
751.02878
743.5363
751.02878
770.52077
662.15949
624.44419
609.84562
624.44456
662.15959
545.89102
493.17663
473.94505
493.17751
545.89168
444.03057
392.1501
376.71593
392.15099
444.03164
863.62714
858.74254
856.93303
858.74244
863.62699
774.47797
755.69622
748.47797
755.69603
774.47759
669.49782
633.05812
618.94052
633.05813
669.49751
556.06507
504.19783
485.0657
504.19827
556.06521
454.40521
401.05734
384.70855
401.05789
454.40582
864.62841
859.89655
858.14359
859.89639
864.62819
778.0986
759.9544
752.98382
759.95394
778.09791
676.22293
640.94187
627.26442
640.94136
676.22201
565.50995
514.53655
495.57549
514.53624
565.50915
464.35796
409.89119
392.76762
409.8909
464.35742
865.55242
860.95922
859.25798
860.95901
865.55215
781.43115
763.86339
757.11815
763.86275
781.43026
682.42042
648.1985
634.92723
648.19755
682.419
574.30571
524.24356
505.50282
524.24255
574.30408
473.88943
418.59954
400.83347
418.59848
473.88785
866.40891
861.94208
860.28831
861.94185
866.40861
784.51358
767.46985
760.93067
767.46904
784.5125
688.15964
654.91084
642.01656
654.90946
688.15772
582.52442
533.37211
514.88339
533.37032
582.52184
483.01428
427.15064
408.86306
427.14858
483.01135
867.20689
862.85616
861.24643
862.85593
867.20658
787.37872
770.8142
764.46465
770.81333
787.37758
693.4976
661.14605
648.60266
661.1444
693.49544
590.22451
541.96721
523.74938
541.96487
590.22133
491.74235
435.50924
416.80826
435.50647
491.73848
867.95321
863.70997
862.14121
863.70975
867.95292
790.05256
773.9306
767.75678
773.92972
790.05143
698.4824
666.96497
654.74991
666.96316
698.48009
597.4627
550.08129
532.14426
550.0785
597.45902
500.09854
443.66615
424.64597
443.6627
500.09378
868.65398
864.51002
862.97927
864.50984
868.65375
792.55859
776.84399
770.83278
776.84322
792.55762
703.15512
672.41129
660.50337
672.40955
703.15295
604.2821
557.74989
540.09784
557.747
604.27841
508.09406
451.59928
432.34118
451.59555
508.08901
869.31423
865.2629
863.76774
865.26276
869.31406
794.91542
779.57978
773.72023
779.57916
794.91465
707.55112
677.53054
665.91074
677.52898
707.54922
610.72838
565.01932
547.65108
565.01651
610.72488
515.75803
459.3143
439.88668
459.31049
515.75298
869.93763
865.97297
864.51121
865.97289
869.93755
797.13676
782.15468
776.43705
782.15424
797.13628
711.69453
682.35177
671.00402
682.35053
711.69312
616.82831
571.91512
554.82911
571.91266
616.82542
523.09787
466.79635
447.25691
466.79286
523.09339
870.52864
866.64531
865.21468
866.64528
870.52863
799.23927
784.58817
779.00232
784.58793
799.23907
715.61656
686.91092
675.81674
686.91005
715.61567
622.62257
578.47825
561.6666
578.47629
622.62043
530.14517
474.06101
454.45697
474.05804
530.14152
871.08946
867.28278
865.88187
867.2828
871.08953
801.23125
786.89115
781.43075
786.89112
801.23134
719.33189
691.22687
680.37594
691.22642
719.33158
628.12777
584.72598
568.1857
584.72466
628.12657
536.90412
481.09738
461.46775
481.09519
536.90167
871.62376
867.88936
866.51623
867.88941
871.62388
803.12633
789.07878
783.73544
789.0789
803.12664
722.86636
695.32807
684.70437
695.32799
722.86657
633.37974
590.69335
574.41542
590.69268
633.37942
543.40755
487.92647
468.30422
487.92512
543.40633
872.13275
868.46702
867.12003
868.4671
872.13291
804.92903
791.15871
785.92516
791.15897
804.92953
726.22755
699.22825
688.81826
699.22851
726.22824
638.38526
596.39348
580.36773
596.39344
638.38583
549.65322
494.5399
474.94851
494.53945
549.6533
872.61953
869.01911
867.69698
869.01921
872.61971
806.65076
793.14354
788.0142
793.14386
806.65137
729.43726
702.95082
692.74456
702.95133
729.4383
643.17575
601.85604
586.07722
601.85657
643.17707
555.67248
500.96041
481.42471
500.96081
555.67374
873.08511
869.54701
868.24816
869.54711
873.0853
808.29534
795.03867
790.00669
795.03904
808.296
732.5023
706.50589
696.49013
706.50659
732.50355
647.75902
607.09247
591.54716
607.09341
647.76084
561.46728
507.18397
487.71562
507.18503
561.46943
873.53199
870.05318
868.77686
870.05327
873.53216
809.872
796.85334
791.91534
796.85373
809.87265
735.44034
709.90984
700.07958
709.91064
735.44169
652.16031
612.12186
596.81189
612.12313
652.16245
567.06409
513.22765
493.85014
513.22931
567.06693
873.96068
870.53839
869.28338
870.53848
873.96083
811.38272
798.59046
793.74117
798.59082
811.38331
738.25473
713.16841
703.51325
713.16921
738.25602
656.38328
616.95112
601.86509
616.95249
656.38548
572.4627
519.08754
499.80784
519.08946
572.46581
874.37347
871.00558
869.77099
871.00565
874.37358
812.83577
800.26085
795.49642
800.26116
812.83627
740.96111
716.30166
706.81459
716.30241
740.96228
660.45017
621.60737
606.73986
621.6088
660.45235
577.68628
524.78786
505.61905
524.79002
577.68954
874.77049
871.45474
870.23957
871.45479
874.77057
814.23186
801.8648
797.18091
801.86503
814.23222
743.5608
719.31031
709.98278
719.31093
743.56174
664.36254
626.09106
611.43251
626.0923
664.36441
582.73573
530.32501
511.27006
530.32697
582.73868
875.15381
871.88839
870.69194
871.88842
875.15386
815.57839
803.41162
798.80511
803.41179
815.57866
746.06749
722.21153
713.03762
722.21205
746.06825
668.13894
630.42375
615.97041
630.42489
668.14059
587.62866
535.71392
516.78621
535.71588
587.63145
875.52325
872.30616
871.12759
872.30617
875.52328
816.87494
804.90016
800.36755
804.90026
816.87507
748.48075
725.00389
715.97686
725.00424
748.48121
671.77943
634.60502
620.35036
634.60584
671.78052
592.36555
540.95565
522.16091
540.95712
592.36754
875.88085
872.7106
871.54914
872.71061
875.88085
818.12857
806.33951
801.87755
806.33958
818.12865
750.81298
727.70329
718.81677
727.70357
750.81331
675.29987
638.65376
624.59087
638.65448
675.30076
596.9604
546.06031
527.4019
546.06167
596.96217
876.22629
873.10129
871.95618
873.10129
876.22628
819.33862
807.72868
803.33413
807.72869
819.3386
753.06415
730.30939
721.55743
730.30949
753.06421
678.70314
642.57332
628.69675
642.57367
678.70347
601.42147
551.04015
532.52369
551.0409
601.4223
876.56138
873.48028
872.35098
873.48028
876.56138
820.51112
809.0746
804.74504
809.07461
820.51111
755.24394
732.83276
724.21061
732.83285
755.24399
681.99903
646.37165
632.67629
646.37197
681.99934
605.75069
555.88579
537.51384
555.88654
605.75152
876.88584
873.84714
872.73308
873.84713
876.88583
821.64574
810.37658
806.10965
810.37655
821.64566
757.35393
735.27541
726.77884
735.27536
757.35379
685.19529
650.06006
636.54282
650.06006
685.19514
609.96807
560.6286
542.40889
560.62874
609.96804
877.20106
874.20351
873.10427
874.20351
877.20106
822.74668
811.63962
807.43338
811.63963
822.74668
759.39921
737.64258
729.26752
737.64259
759.3992
688.29208
653.63447
640.29023
653.63456
688.29212
614.05794
565.2359
547.16771
565.2362
614.05821
877.50708
874.54938
873.4645
874.54938
877.50708
823.81512
812.86504
808.71753
812.86501
823.81508
761.38546
739.94188
731.68504
739.9418
761.38531
691.30646
657.11951
643.94655
657.11936
691.30615
618.05914
569.76686
551.85869
569.76666
618.05871
877.80467
874.88575
873.81484
874.88576
877.8047
824.85273
814.05484
809.96431
814.05487
824.8528
763.31158
742.17079
734.02825
742.17083
763.31166
694.22598
660.49412
647.48674
660.49417
694.22605
621.93301
574.15615
556.40418
574.15628
621.93316
878.0944
875.21314
874.1558
875.21315
878.09442
825.86282
815.21292
811.17778
815.21294
825.86287
765.18884
744.34414
736.31349
744.34411
765.18883
697.08002
663.79984
650.95779
663.7997
697.07984
625.74222
578.4975
560.91203
578.49724
625.74181
878.37624
875.53166
874.48755
875.53169
878.37631
826.84388
816.33749
812.35607
816.33759
826.84406
767.00855
746.44971
738.52698
746.44985
767.00882
699.84067
666.99491
654.31161
666.99506
699.84097
629.42024
582.68649
565.26043
582.68668
629.42059
878.65152
875.84269
874.81146
875.84272
878.65157
827.80233
817.43612
813.50714
817.4362
827.80248
768.78951
748.51195
740.69556
748.51203
768.78969
702.55294
670.1421
657.61892
670.14211
702.55303
633.05872
586.85827
569.60421
586.85818
633.05864
878.91924
876.14522
875.12652
876.14527
878.91933
828.7327
818.50228
814.62405
818.50243
828.73299
770.51374
750.50693
742.79272
750.50718
770.51421
705.17047
673.17514
660.80441
673.17547
705.17108
636.55844
590.86287
573.77031
590.86328
636.55918
879.18168
876.44174
875.4353
876.44178
879.18175
829.64537
819.54827
815.71987
819.54841
829.64561
772.20945
752.47099
744.85831
752.47119
772.20981
707.75722
676.18212
663.967
676.18233
707.75763
640.04518
594.88332
577.96758
594.88351
640.04554
879.43664
876.72985
875.73534
876.72991
879.43675
830.53003
820.56183
816.78155
820.56203
830.53039
773.84751
754.36624
746.85062
754.36661
773.84814
710.24512
679.06816
666.99972
679.06868
710.24602
643.38191
598.71761
581.96463
598.71827
643.38305
879.68765
877.01346
876.03068
877.01351
879.68774
831.40199
821.56113
817.82843
821.56131
831.40229
775.46756
756.24338
748.82515
756.24368
775.46807
712.72059
681.95098
670.03435
681.95139
712.72127
646.73383
602.60319
586.03131
602.60368
646.73463
879.93104
877.28851
876.31712
877.28858
879.93116
832.24518
822.52702
818.84013
822.52725
832.24558
777.02738
758.04812
750.7224
758.04856
777.02812
715.09041
684.70284
672.92762
684.7035
715.09151
649.92085
606.27954
589.87098
606.28041
649.9223
880.17185
877.56062
876.6005
877.56068
880.17195
833.08092
823.48483
819.84358
823.48502
833.08124
778.58024
759.8482
752.61634
759.84856
778.58084
717.4672
687.47573
675.84911
687.47628
717.46808
653.1531
610.04515
593.82155
610.04589
653.15424
880.40468
877.82376
876.87456
877.82383
880.4048
833.88628
824.40729
820.80979
824.40754
833.88669
780.06864
761.57034
754.42688
761.57081
780.06941
719.72886
690.10446
678.61432
690.1052
719.73006
656.20184
613.57419
597.51382
613.57519
656.20345
880.63642
878.08565
877.14731
878.0857
880.63651
834.6898
825.32827
821.77473
825.32847
834.69013
781.56189
763.30221
756.24957
763.3026
781.56252
722.0183
692.78021
681.43595
692.78085
722.01928
659.3281
617.23333
601.36137
617.23424
659.32944
880.85956
878.33788
877.41003
878.33794
880.85967
835.46048
826.21094
822.69926
826.21117
835.46087
782.98468
764.94847
757.98047
764.94893
782.98543
724.1802
695.29507
684.08265
695.29582
724.1814
662.24814
620.62386
604.91452
620.62492
662.24979
881.08322
878.59068
877.67335
878.59073
881.08331
836.23541
827.09926
823.6301
827.09946
836.23572
784.42518
766.62007
759.74028
766.62047
784.4258
726.39254
697.88521
686.81642
697.88588
726.39354
665.28089
624.18898
608.67117
624.18997
665.28232
881.29743
878.83285
877.92562
878.83291
881.29753
836.97407
827.94521
824.51619
827.94542
836.97442
785.78724
768.19606
761.39742
768.1965
785.78794
728.46168
700.29382
689.35247
700.29454
728.46281
668.08013
627.44813
612.09176
627.44916
668.08171
881.51394
879.07761
878.1806
879.07766
881.51401
837.72373
828.80471
825.41695
828.80489
837.72401
787.18129
769.81469
763.10204
769.81507
787.18187
730.60636
702.80903
692.00944
702.80969
730.60733
671.03101
630.93099
615.769
630.93198
671.03242
881.71984
879.31043
878.42315
879.31048
881.71993
838.4326
829.61649
826.26725
829.61667
838.43291
788.48668
771.32499
764.69019
771.32538
788.4873
732.5884
705.11749
694.44099
705.11815
732.58942
673.71566
634.06414
619.06187
634.0651
673.71711
881.93007
879.54813
878.6708
879.54817
881.93013
839.1601
830.45074
827.14167
830.45089
839.16034
789.84014
772.89747
766.34679
772.89781
789.84066
734.67431
707.56782
697.03168
707.56843
734.6752
676.59577
637.47616
622.67094
637.47709
676.5971
882.12819
879.77219
878.90425
879.77223
882.12826
839.841
831.23041
827.95836
831.23057
839.84126
791.0921
774.34571
767.86973
774.34605
791.09263
736.57367
709.78076
699.3634
709.78134
736.57456
679.17045
640.48695
625.83902
640.48781
679.17173
882.33295
880.00375
879.14554
880.00378
882.333
840.54927
832.0428
828.81003
832.04294
840.54948
792.41061
775.87857
769.48522
775.87887
792.41106
738.60936
712.17597
701.89796
712.17651
738.61016
681.99061
643.83937
629.39097
643.84021
681.9918
882.52369
880.21951
879.37036
880.21954
882.52375
841.20363
832.79198
829.59478
832.79211
841.20384
793.61159
777.26748
770.94575
777.26777
793.61203
740.42925
714.29658
704.13296
714.29709
740.43001
684.45834
646.72971
632.43542
646.73047
684.45945
882.72377
880.44581
879.60622
880.44584
882.72381
841.89553
833.5858
830.42715
833.58591
841.89571
794.90063
778.76711
772.52688
778.76736
794.90101
742.42316
716.64631
706.62144
716.64678
742.42384
687.22933
650.0339
635.94151
650.03464
687.23038
882.90744
880.6536
879.82276
880.65362
882.90748
842.52435
834.30559
831.18111
834.3057
842.52451
796.05228
780.09841
773.92675
780.09865
796.05263
744.16548
718.67632
708.76126
718.67675
744.16611
689.59148
652.80394
638.86172
652.8046
689.59243
883.10361
880.87553
880.0541
880.87555
883.10364
843.20271
835.08412
831.99765
835.08421
843.20284
797.31736
781.57126
775.48034
781.57147
797.31766
746.12616
720.9904
711.21391
720.9908
746.12674
692.32437
656.07171
642.3337
656.07234
692.32527
883.28036
881.07552
880.26254
881.07554
883.28039
843.8065
835.77506
832.72135
835.77514
843.80662
798.42036
782.84559
776.82009
782.84578
798.42064
747.7914
722.92988
713.25837
722.93024
747.7919
694.58053
658.71971
645.12718
658.72028
694.58133
883.47343
881.29398
880.4903
881.294
883.47345
844.47423
836.5417
833.52561
836.54176
844.47433
799.66723
784.29842
778.35326
784.29858
799.66747
749.72786
725.21868
715.68597
725.219
749.72832
697.28699
661.96358
648.57757
661.96411
697.28774
883.64328
881.48618
880.69063
881.48619
883.6433
845.05293
837.20366
834.21888
837.20372
845.05301
800.72112
785.51502
779.63201
785.51516
800.72132
751.31472
727.06571
717.63284
727.066
751.31511
699.43465
664.48567
651.23974
664.48615
699.4353
883.83411
881.70217
880.91585
881.70218
883.83413
845.71328
837.96215
835.01481
837.96219
845.71334
801.95616
786.95532
781.15263
786.95544
801.95633
753.23687
729.34058
720.0472
729.34083
753.23722
702.12742
667.71928
654.68219
667.71971
702.12802
883.99687
881.88635
881.10785
881.88636
883.99688
846.26604
838.59409
835.67652
838.59412
846.26608
802.95892
788.11164
782.36761
788.11174
802.95905
754.74182
731.0908
721.89175
731.09102
754.74211
704.1615
670.10911
657.20607
670.1095
704.16201
884.18652
882.10105
881.33175
882.10105
884.18652
846.92286
839.34891
836.46884
839.34892
846.92288
804.1897
789.54824
783.885
789.54831
804.18979
756.6612
733.36481
724.30636
733.36499
756.66143
706.85496
673.34769
660.65583
673.34802
706.8554
884.34169
882.27666
881.51482
882.27665
884.34169
847.44772
839.94845
837.09645
839.94846
847.44772
805.13712
790.63923
785.03083
790.63928
805.13718
758.07775
735.01076
726.04079
735.01091
758.07792
708.76737
675.5961
663.03178
675.59639
708.76773
884.53155
882.49162
881.73903
882.49161
884.53153
848.10613
840.70553
837.89136
840.70551
848.10611
806.3735
792.08349
786.55683
792.08351
806.3735
760.00853
737.29955
728.47166
737.29965
760.00864
711.47817
678.8568
666.5059
678.85702
711.47844
884.67813
882.65751
881.91198
882.6575
884.67811
848.59916
841.26806
838.48
841.26803
848.59911
807.2579
793.10029
787.62424
793.10029
807.25787
761.32615
738.82986
730.08442
738.82994
761.3262
713.25726
680.95163
668.7215
680.95181
713.25744
884.87028
882.87509
882.13894
882.87507
884.87024
849.26691
842.03634
839.28687
842.03628
849.26681
808.51394
794.56799
789.17509
794.56794
808.51384
763.2866
741.15251
732.55063
741.15252
763.28656
716.00477
684.25342
672.23857
684.25352
716.00485
885.00611
883.02885
882.29926
883.02882
885.00607
849.71988
842.55236
839.82657
842.55228
849.71975
809.32118
795.49526
790.14852
795.49519
809.32103
764.4889
742.55102
734.02585
742.55101
764.4888
717.63478
686.17949
674.27877
686.17955
717.63478
885.20471
883.25371
882.53379
883.25366
885.20464
850.412
843.34889
840.66312
843.34877
850.41181
810.61982
797.01018
791.74802
797.01005
810.61957
766.50308
744.93027
736.54939
744.9302
766.50286
720.44088
689.54213
677.85764
689.54213
720.44075
885.32347
883.38803
882.67381
883.38797
885.32338
850.80293
843.79427
841.12914
843.79411
850.80268
811.32294
797.82199
792.60216
797.82181
811.32261
767.56657
746.1762
737.86731
746.17608
767.56626
721.9018
691.28158
679.70519
691.28154
721.9016
885.57473
883.67279
882.97095
883.67271
885.57461
851.68431
844.80748
842.19262
844.80724
851.68396
812.96354
799.72971
794.61401
799.72942
812.96304
770.09095
749.14898
741.01718
749.14875
770.09045
725.40062
695.465
684.15446
695.46485
725.40022
540.43411
498.16251
483.54495
498.16258
540.43418
345.75024
333.57956
330.10659
333.57957
345.75025
315.01499
312.64315
312.08071
312.64314
315.01497
310.63308
310.25541
310.18649
310.25541
310.63308
310.07342
310.02042
310.01435
310.02042
310.07341
757.00993
724.33365
710.49783
724.33347
757.00971
489.3124
437.88203
421.76665
437.88144
489.3116
354.92232
333.96882
328.97352
333.96755
354.92045
318.36063
313.52373
312.62039
313.52358
318.36029
311.4215
310.43273
310.30832
310.43272
311.42149
812.09327
796.28379
789.44566
796.28383
812.0933
582.17685
527.62764
507.34615
527.62777
582.17692
406.2323
369.29037
359.05329
369.29071
406.2325
334.52379
321.11241
318.42961
321.11309
334.52437
314.81278
311.52103
311.09955
311.5211
314.81442
829.706
819.18014
815.18696
819.18032
829.70625
640.84824
592.76038
573.60801
592.761
640.84913
456.53698
407.42556
392.70752
407.42634
456.53833
355.62344
332.54661
327.50738
332.54681
355.62415
320.99205
313.71772
312.69878
313.71748
320.99228
837.58727
828.67559
825.38734
828.67563
837.58731
674.92519
634.90566
618.61503
634.90586
674.92542
498.44429
444.24624
426.68055
444.24656
498.44473
379.14097
346.95421
339.29685
346.95402
379.14075
329.54321
317.29356
315.32438
317.29318
329.54246
842.93464
834.70623
831.70204
834.70624
842.93467
696.91994
662.35749
648.62447
662.35764
696.92011
531.62559
476.53377
457.67456
476.53414
531.62604
402.61049
362.82668
352.66976
362.8268
402.61071
339.84855
322.13263
318.9834
322.13275
339.84842
846.95865
839.31525
836.52543
839.31522
846.95859
712.62332
681.61396
669.5866
681.6139
712.62312
557.80826
503.99997
484.78782
503.9999
557.80793
424.62446
379.09847
366.65518
379.09813
424.62373
351.03974
327.87659
323.38413
327.87638
351.03876
850.13167
843.00609
840.40983
843.00606
850.1316
724.68891
696.2096
685.31803
696.2095
724.68865
578.86541
527.25944
508.29869
527.25929
578.86492
444.82437
395.2511
380.85012
395.25081
444.82358
362.68039
334.31188
328.37804
334.31186
362.67959
852.73829
846.06286
843.63158
846.06281
852.73821
734.4625
707.98676
697.911
707.98659
734.4622
596.28701
547.17157
528.78417
547.17129
596.28645
463.2884
411.1146
395.11411
411.11427
463.28762
374.56328
341.36609
333.92764
341.36618
374.56271
854.95143
848.64343
846.34463
848.64339
854.95135
742.68617
717.8282
708.37268
717.82801
742.68584
611.107
564.38328
546.6839
564.38291
611.10634
480.21991
426.54741
409.30808
426.54699
480.21899
386.59878
349.00719
340.04678
349.00712
386.59805
856.85874
850.87701
848.68796
850.87698
856.85869
749.73808
726.28645
717.34055
726.28631
749.73787
623.92773
579.43352
562.44226
579.43323
623.92728
495.7268
441.39303
423.2588
441.39273
495.72618
398.61821
357.12829
346.67942
357.12829
398.6178
858.53211
852.83225
850.73626
852.83223
858.53208
755.89656
733.65507
725.14179
733.65496
755.89641
635.19024
592.70202
576.38392
592.70177
635.18988
509.93654
455.53954
436.81055
455.53921
509.93599
410.47467
365.62256
353.75427
365.62233
410.47413
860.01328
854.55711
852.5437
854.55711
860.01327
761.32577
740.12549
731.99304
740.12545
761.32572
645.17045
604.45694
588.76516
604.45682
645.17029
522.94958
468.88494
449.81063
468.88475
522.94928
422.03924
374.35699
361.17027
374.35676
422.03885
861.33851
856.09598
854.15692
856.09599
861.33852
766.16402
745.87347
738.0787
745.87348
766.16404
654.09811
614.96935
599.84913
614.96934
654.09809
534.89173
481.42419
462.199
481.42411
534.89161
433.23801
383.22843
368.84895
383.22816
433.23769
862.536
857.48237
855.611
857.48238
862.53603
770.52071
751.02905
743.53712
751.02912
770.5208
662.15951
624.44517
609.84752
624.44528
662.15964
545.8916
493.1784
473.94772
493.1785
545.89171
444.03151
392.15144
376.71731
392.15131
444.03143
863.62696
858.74248
856.93316
858.7425
863.62699
774.47749
755.69623
748.47864
755.69632
774.47761
669.49737
633.05868
618.94224
633.05887
669.49758
556.06504
504.19921
485.0684
504.19944
556.06531
454.40562
401.05858
384.7103
401.0586
454.40576
864.62815
859.89641
858.14364
859.89644
864.62819
778.09779
759.95406
752.98421
759.95417
778.09793
676.22181
640.94174
627.26568
640.942
676.22209
565.50888
514.53701
495.57771
514.53737
565.50932
464.35712
409.89157
392.76917
409.89179
464.35754
865.55211
860.95902
859.25799
860.95904
865.55214
781.43013
763.8628
757.11832
763.86289
781.43025
682.41878
648.19778
634.92801
648.19804
682.41907
574.30376
524.24312
505.50444
524.24354
574.30428
473.88749
418.59911
400.83475
418.59946
473.8881
866.40858
861.94185
860.28828
861.94186
866.40859
784.51239
767.46904
760.93062
767.46909
784.51247
688.15751
654.90952
642.01679
654.90973
688.15775
582.5215
533.37059
514.88415
533.371
582.52201
483.01095
427.14894
408.86359
427.14935
483.01166
867.20656
862.85594
861.24639
862.85593
867.20657
787.3775
770.81333
764.4645
770.81334
787.37754
693.49526
661.14438
648.6025
661.14453
693.49542
590.22102
541.96493
523.74943
541.96527
590.22144
491.73809
435.50659
416.80812
435.50699
491.73879
867.95292
863.70978
862.14118
863.70976
867.95291
790.0514
773.92975
767.75659
773.92971
790.05138
698.47997
666.9631
654.74947
666.96314
698.48004
597.45878
550.07836
532.14363
550.07856
597.45907
500.09344
443.6625
424.64499
443.6628
500.09401
868.65377
864.50989
862.97928
864.50986
868.65374
792.55765
776.84333
770.83268
776.84325
792.55758
703.15294
672.40958
660.50291
672.4095
703.1529
604.27829
557.74685
540.09691
557.74689
604.27841
508.08879
451.59521
432.33971
451.59536
508.08916
869.3141
865.26286
863.76781
865.26282
869.31406
794.91474
779.57938
773.72029
779.57926
794.91463
707.54931
677.52914
665.91041
677.52898
707.54917
610.72491
565.01643
547.65007
565.01632
610.72484
515.75291
459.31007
439.88488
459.31004
515.75303
869.9376
865.97302
864.51135
865.97298
869.93756
797.13642
782.15461
776.43734
782.15447
797.1363
711.69332
682.35093
671.00404
682.3507
711.69311
616.82561
571.91286
554.82841
571.91261
616.82539
523.0935
466.79261
447.25527
466.79241
523.0934
870.52869
866.64544
865.21487
866.64541
870.52865
799.23926
784.58843
779.00284
784.58829
799.23914
715.61598
686.9107
675.81718
686.91044
715.61574
622.62077
578.47681
561.6664
578.47647
622.62045
530.14183
474.05807
454.45574
474.05773
530.14153
871.0896
867.283
865.88212
867.28297
871.08957
801.23156
786.89174
781.43151
786.89161
801.23145
719.33197
691.22734
680.37689
691.22708
719.33173
628.12705
584.72561
568.18625
584.72521
628.12669
536.90215
481.0957
461.46733
481.09526
536.90175
871.62395
867.88963
866.51652
867.8896
871.62393
803.12689
789.07961
783.73638
789.0795
803.1268
722.86703
695.32915
684.70576
695.3289
722.86681
633.38003
590.69404
574.41673
590.69363
633.37967
543.407
487.92614
468.30476
487.92567
543.40654
872.13298
868.46732
867.12033
868.46731
872.13297
804.92979
791.15974
785.92623
791.15966
804.92972
726.22872
699.22987
688.82004
699.22966
726.22855
638.38651
596.39521
580.3698
596.39481
638.38619
549.65409
494.54104
474.9501
494.54056
549.65365
872.61978
869.01942
867.69729
869.01941
872.61977
806.65162
793.14464
788.01533
793.14459
806.65159
729.43878
702.95279
692.74662
702.95263
729.43866
643.17776
601.85859
586.07995
601.85827
643.17753
555.67459
500.96287
481.42734
500.96247
555.67425
873.08536
869.54731
868.24846
869.5473
873.08536
808.29623
795.03981
790.00782
795.03976
808.29623
732.504
706.50809
696.49233
706.50797
732.50395
647.76153
607.09565
591.55032
607.09538
647.76139
561.47032
507.18752
487.71904
507.18715
561.47008
873.53221
870.05345
868.77712
870.05345
873.53222
809.87285
796.85443
791.9164
796.85441
809.87288
735.44209
709.9121
700.0818
709.91203
735.44212
652.16311
612.12542
596.81535
612.12526
652.16309
567.06781
513.23207
493.85428
513.23185
567.06775
873.96087
870.53862
869.2836
870.53863
873.96089
811.38347
798.59142
793.7421
798.59143
811.38352
738.25637
713.17054
703.51534
713.17052
738.25644
656.38607
616.95469
601.86853
616.9546
656.38612
572.46663
519.09225
499.81217
519.09209
572.46664
874.37362
871.00576
869.77117
871.00577
874.37364
812.8364
800.26165
795.49722
800.26169
812.83648
740.96257
716.30359
706.81649
716.30365
740.96271
660.45285
621.61088
606.74324
621.61091
660.45304
577.69028
524.79283
505.62364
524.79284
577.69053
874.77059
871.45487
870.2397
871.45489
874.77062
814.23232
801.86541
797.18152
801.86545
814.2324
743.56197
719.31188
709.98436
719.31196
743.56212
664.36481
626.09409
611.43546
626.09416
664.365
582.73927
530.32944
511.27419
530.32949
582.7395
875.15387
871.88848
870.69203
871.88849
875.1539
815.57872
803.41207
798.80558
803.41212
815.57882
746.06841
722.21282
713.03893
722.21293
746.06862
668.1409
630.42643
615.97306
630.4266
668.14124
587.63194
535.71818
516.79024
535.71843
587.63246
875.52328
872.3062
871.12763
872.30621
875.5233
816.87511
804.90043
800.36785
804.90047
816.87519
748.48132
725.00477
715.97778
725.00484
748.48149
671.78076
634.60699
620.35235
634.60709
671.78104
592.36792
540.9589
522.16398
540.959
592.36828
875.88085
872.71062
871.54916
872.71063
875.88088
818.12866
806.33967
801.87773
806.33972
818.12876
750.81337
727.70393
718.81746
727.70404
750.81359
675.30092
638.65537
624.59254
638.65558
675.30132
596.96245
546.06324
527.40479
546.06358
596.96307
876.22628
873.10128
871.95617
873.10129
876.22629
819.3386
807.72869
803.33417
807.72873
819.33866
753.06424
730.30965
721.55775
730.30971
753.06437
678.70357
642.57419
628.6977
642.57428
678.7038