/*--------------------------------*- C++ -*----------------------------------*\
| =========                 |                                                 |
| \\      /  F ield         | OpenFOAM: The Open Source CFD Toolbox           |
|  \\    /   O peration     | Version:  2.3.x                                 |
|   \\  /    A nd           | Web:      www.OpenFOAM.org                      |
|    \\/     M anipulation  |                                                 |
\*---------------------------------------------------------------------------*/
FoamFile
{
    version     2.0;
    format      ascii;
    class       volVectorField;
    location    "0.018";
    object      U;
}
// * * * * * * * * * * * * * * * * * * * * * * * * * * * * * * * * * * * * * //

dimensions      [0 1 -1 0 0 0 0];

internalField   nonuniform List<vector> 
10000
(
(0.22701881 0.031490581 1.6919163)
(0.20708423 0.088401284 1.81156)
(0.156593 0.15659283 1.847918)
(0.08840148 0.20708407 1.8115604)
(0.031490762 0.22701863 1.6919169)
(0.48874789 0.088744384 2.1650821)
(0.42376347 0.19396256 2.1451252)
(0.31854482 0.31854489 2.13578)
(0.19396247 0.4237633 2.1451249)
(0.08874442 0.48874773 2.1650811)
(0.43716231 0.090064853 2.1313973)
(0.35732944 0.1610513 2.1025743)
(0.25935633 0.25935663 2.0894376)
(0.16105111 0.35732956 2.1025743)
(0.090064699 0.43716223 2.1313967)
(0.29874364 0.078055549 2.0675568)
(0.2274128 0.094639321 2.0541264)
(0.16083572 0.16083582 2.0504431)
(0.094639583 0.22741331 2.0541267)
(0.078055718 0.29874428 2.0675569)
(0.20136857 0.065108469 2.050155)
(0.1533403 0.052584417 2.0462962)
(0.10774097 0.10774088 2.0433284)
(0.052584684 0.15334051 2.0462965)
(0.065108708 0.20136896 2.0501552)
(0.097754315 0.023648878 1.7663244)
(0.10624428 0.064736213 1.9532996)
(0.093659661 0.093658745 2.0160135)
(0.064737386 0.106244 1.9532998)
(0.023649904 0.097754622 1.7663249)
(0.37651221 0.068657678 2.6361825)
(0.35459488 0.16985523 2.634052)
(0.27753608 0.2775354 2.6270472)
(0.16985626 0.35459503 2.6340536)
(0.068658948 0.37651306 2.6361861)
(0.4141677 0.074424874 2.6597136)
(0.3600596 0.16473738 2.5989165)
(0.27467933 0.27467858 2.5794469)
(0.16473836 0.36005972 2.5989182)
(0.074426137 0.41416878 2.6597171)
(0.36648418 0.069303628 2.5621768)
(0.28997357 0.12402148 2.4837774)
(0.2105767 0.21057552 2.4583553)
(0.1240227 0.2899732 2.4837783)
(0.069304975 0.36648496 2.5621789)
(0.27258366 0.062661262 2.4458166)
(0.20506349 0.074105704 2.3832483)
(0.14947787 0.14947654 2.3668528)
(0.074106856 0.2050622 2.3832485)
(0.062662539 0.27258338 2.4458176)
(0.022308245 0.010589485 1.4689667)
(0.025207134 0.02486162 1.7091756)
(0.028768342 0.028766929 1.8009224)
(0.024863182 0.025206336 1.709174)
(0.010590691 0.022308371 1.4689638)
(0.14545599 0.034588684 2.8399687)
(0.17415574 0.10018411 2.9857525)
(0.15053831 0.15053588 3.009569)
(0.10018744 0.17415498 2.985752)
(0.034591051 0.14545668 2.8399655)
(0.23488334 0.041695413 3.0750725)
(0.22454198 0.11544713 3.0244367)
(0.17840686 0.17840425 3.0043734)
(0.11545015 0.22454024 3.0244371)
(0.041698207 0.23488344 3.0750731)
(0.24057734 0.034481655 3.0010987)
(0.20233018 0.097229466 2.907894)
(0.15343634 0.15343395 2.8818541)
(0.097231698 0.20232751 2.9078935)
(0.034483743 0.24057566 3.0010989)
(0.19426882 0.027096673 2.8545191)
(0.14747404 0.062446931 2.7756751)
(0.11165755 0.11165569 2.7555157)
(0.062448742 0.14747105 2.7756742)
(0.027097963 0.19426564 2.8545175)
(-0.0010796949 0.0041210623 1.1640036)
(-0.0021166613 0.0066477376 1.3416172)
(0.0016617688 0.0016622592 1.4140974)
(0.0066470249 -0.0021168677 1.3416147)
(0.0041203459 -0.0010802594 1.1639993)
(0.098736484 0.024119819 2.774591)
(0.10391075 0.065441844 2.9689342)
(0.095335346 0.095334319 3.0287317)
(0.065442954 0.10390937 2.9689309)
(0.024120761 0.098735418 2.7745851)
(0.16116076 0.024906787 3.2551366)
(0.15890812 0.084606669 3.249123)
(0.13045851 0.13045709 3.2391601)
(0.08460823 0.15890629 3.2491206)
(0.024907848 0.16115901 3.2551317)
(0.17891524 0.020108146 3.2403271)
(0.15421073 0.076696089 3.1734205)
(0.11790274 0.11790174 3.1499673)
(0.076697178 0.15420896 3.1734183)
(0.02010864 0.17891301 3.240323)
(0.15420327 0.014864232 3.1251198)
(0.10925283 0.050950993 3.0429479)
(0.082005061 0.08200468 3.0253464)
(0.050951424 0.10925151 3.0429464)
(0.014864075 0.15420085 3.125116)
(-0.0035010028 -0.0013956221 1.0632501)
(-0.0041760043 -0.002308984 1.207925)
(-0.0039128441 -0.0039110089 1.2630733)
(-0.0023114589 -0.0041752153 1.2079253)
(-0.0013978891 -0.0035010513 1.0632498)
(0.047165736 0.0077939204 2.6606706)
(0.057328472 0.034327678 2.8937697)
(0.054891899 0.054893341 2.9713788)
(0.034325314 0.057328151 2.893769)
(0.0077913411 0.047164228 2.6606683)
(0.11268628 0.013302916 3.3391185)
(0.11942357 0.062093347 3.3787166)
(0.099826183 0.09982683 3.3795687)
(0.062092386 0.11942315 3.3787149)
(0.013301334 0.1126847 3.3391151)
(0.14712752 0.012355338 3.399444)
(0.13051282 0.063709442 3.3467378)
(0.10158993 0.10159056 3.3281515)
(0.063708699 0.13051281 3.346736)
(0.012354143 0.14712661 3.3994404)
(0.13962646 0.010574627 3.3082199)
(0.10164976 0.047098292 3.2292889)
(0.074067744 0.074068694 3.2082876)
(0.047097164 0.10165014 3.2292879)
(0.010573442 0.13962586 3.3082168)
(-0.0021338481 -0.0019082303 1.0220359)
(-0.0035382966 -0.0040265482 1.156078)
(-0.0044840932 -0.0044825587 1.2045109)
(-0.0040286318 -0.0035371868 1.1560791)
(-0.0019101686 -0.0021333782 1.0220373)
(0.021459431 0.00087187599 2.5920644)
(0.026942905 0.014720183 2.836779)
(0.026211275 0.026213438 2.9202673)
(0.014717159 0.026944082 2.8367797)
(0.00086866519 0.021459784 2.5920652)
(0.073543109 0.0055159911 3.3915632)
(0.083361054 0.043389899 3.4756168)
(0.072559424 0.072560632 3.4867588)
(0.043388452 0.083362041 3.4756161)
(0.0055138233 0.073543692 3.3915621)
(0.11555481 0.0062319564 3.5310701)
(0.10801719 0.05291553 3.4870194)
(0.084710466 0.084711156 3.469368)
(0.052914958 0.10801828 3.4870184)
(0.0062308898 0.11555602 3.5310678)
(0.12219753 0.006531985 3.4585593)
(0.094285189 0.044054241 3.3815851)
(0.068745392 0.0687458 3.3588548)
(0.044053793 0.094286121 3.3815847)
(0.0065314196 0.1221987 3.4585573)
(-0.0008658683 -0.00076265268 1.0003833)
(-0.0018739288 -0.0021406365 1.1322669)
(-0.0025501531 -0.0025492942 1.179229)
(-0.0021422215 -0.0018730832 1.1322677)
(-0.00076417899 -0.00086551765 1.0003847)
(0.011220491 -0.00064136958 2.5522253)
(0.012720847 0.0064173493 2.8014767)
(0.01207017 0.01207207 2.8869296)
(0.0064140796 0.012722265 2.8014776)
(-0.00064471034 0.011221175 2.5522268)
(0.047018488 0.0012870522 3.4288454)
(0.055704761 0.029421266 3.5524392)
(0.049965962 0.049967363 3.5756778)
(0.029418927 0.055705855 3.552439)
(0.0012841813 0.0470194 3.4288451)
(0.086868 0.0016218829 3.6461298)
(0.085284146 0.042657156 3.6154398)
(0.068192671 0.068193542 3.5981238)
(0.042655974 0.085285379 3.6154386)
(0.0016202016 0.08686956 3.6461277)
(0.10101494 0.0026394402 3.5936256)
(0.081884987 0.039300226 3.5187364)
(0.060028571 0.060029089 3.4948131)
(0.039299425 0.081886108 3.5187356)
(0.002638364 0.10101661 3.5936236)
(-0.0003246436 -3.1408734e-05 0.98811118)
(-0.00072313495 -0.00061387683 1.1200683)
(-0.00094225163 -0.00094174406 1.1670064)
(-0.00061493839 -0.00072258511 1.1200689)
(-3.2413437e-05 -0.00032446849 0.98811239)
(0.0072238782 -0.00060371254 2.5311288)
(0.0073614988 0.003595736 2.783574)
(0.0066676637 0.0066691703 2.8698533)
(0.0035928461 0.0073627647 2.7835748)
(-0.00060656582 0.0072245511 2.5311306)
(0.031550513 -0.00060592446 3.4592505)
(0.037966548 0.020096537 3.615908)
(0.034728147 0.034729634 3.6505656)
(0.020093798 0.03796767 3.615908)
(-0.00060884575 0.031551675 3.4592508)
(0.065401915 -0.0010743505 3.7474664)
(0.067051603 0.033894104 3.7345838)
(0.054459419 0.054460544 3.7189851)
(0.033892457 0.067052973 3.7345829)
(-0.0010761545 0.065403775 3.747465)
(0.082542519 0.00021559492 3.7173541)
(0.06973375 0.034056576 3.6472562)
(0.051090816 0.051091596 3.6224433)
(0.034055502 0.06973511 3.6472554)
(0.00021440659 0.082544553 3.7173524)
(-9.3718191e-05 0.00014936738 0.98055471)
(-0.00019801452 -7.1357886e-05 1.1120429)
(-0.00024498823 -0.00024459542 1.1589097)
(-7.1990937e-05 -0.00019761775 1.1120433)
(0.00014891293 -9.3702924e-05 0.98055571)
(0.0053962741 -0.00041406582 2.5215669)
(0.0054989774 0.0026349817 2.7755453)
(0.0047984256 0.0047997349 2.8621098)
(0.0026324529 0.0055000112 2.775546)
(-0.00041610749 0.0053965621 2.5215684)
(0.022866814 -0.001252785 3.4871416)
(0.027566488 0.014408602 3.6692169)
(0.025366557 0.025368019 3.7136833)
(0.014405711 0.027567305 3.6692169)
(-0.0012553918 0.022867498 3.4871419)
(0.051187455 -0.0022521947 3.8373764)
(0.054445069 0.027491909 3.8439772)
(0.044723544 0.04472484 3.8310893)
(0.027489936 0.054446142 3.8439763)
(-0.0022541161 0.051188768 3.8373751)
(0.068785043 -0.00067987565 3.8310866)
(0.060872345 0.029769695 3.7667647)
(0.044579297 0.044580384 3.7412005)
(0.029768322 0.06087363 3.7667637)
(-0.00068134935 0.068786686 3.8310848)
(1.3269323e-05 0.00019207044 0.97507454)
(2.8964765e-05 0.00016548602 1.1063445)
(2.3369179e-05 2.3504688e-05 1.1530809)
(0.00016525005 2.9065011e-05 1.1063453)
(0.00019205615 1.3226892e-05 0.97507574)
(0.0043896636 -0.00035905975 2.517762)
(0.0043266089 0.0020862262 2.7750564)
(0.0037566054 0.0037575258 2.8622335)
(0.002084642 0.0043271188 2.7750573)
(-0.00036031651 0.0043896309 2.517764)
(0.017697284 -0.0014894889 3.5135193)
(0.021102976 0.010706285 3.7160079)
(0.019313006 0.019314522 3.7688407)
(0.010703432 0.0211035 3.7160083)
(-0.0014917098 0.017697329 3.5135203)
(0.041104632 -0.0026113801 3.9176361)
(0.045516771 0.022733709 3.9449019)
(0.037753483 0.037755166 3.9355456)
(0.02273116 0.045517576 3.9449015)
(-0.0026135438 0.041105037 3.9176356)
(0.059247731 -0.00075594156 3.9378606)
(0.054554084 0.026475196 3.8793565)
(0.040133857 0.040135638 3.8530878)
(0.026472984 0.054555401 3.8793558)
(-0.00075796742 0.059248701 3.9378593)
(5.2758898e-05 0.00017427484 0.97101684)
(2.9682293e-05 0.00015749896 1.1016451)
(2.7260719e-05 2.7006885e-05 1.1482424)
(0.00015774661 2.954027e-05 1.1016459)
(0.00017478872 5.2693138e-05 0.97101812)
(0.0034232492 -0.00022135516 2.5176312)
(0.0037756619 0.0018859668 2.7763749)
(0.0032084442 0.0032088979 2.8643597)
(0.0018850045 0.0037758106 2.7763762)
(-0.0002213603 0.0034231428 2.5176334)
(0.013985259 -0.0014191028 3.538808)
(0.016702999 0.008314807 3.7573467)
(0.015124934 0.015126036 3.8172706)
(0.0083126172 0.016703142 3.7573475)
(-0.0014203439 0.013984985 3.5388095)
(0.033486298 -0.0026081644 3.9896545)
(0.038493784 0.019016428 4.0377387)
(0.032250909 0.032252386 4.0327034)
(0.01901409 0.038494125 4.0377388)
(-0.0026098723 0.03348607 3.9896547)
(0.051452909 -0.00066245189 4.0378492)
(0.049350066 0.023710813 3.9848698)
(0.036614535 0.036616288 3.9583318)
(0.023708604 0.049351004 3.9848694)
(-0.00066432213 0.051453195 4.0378485)
(2.3545734e-05 9.0266354e-05 0.9678915)
(-1.4325216e-05 9.3817158e-05 1.0980448)
(-6.8942352e-06 -7.551953e-06 1.1446391)
(9.4568901e-05 -1.474219e-05 1.0980459)
(9.1231063e-05 2.3447087e-05 0.96789295)
(0.0027779955 -0.00025894226 2.5188505)
(0.0030182465 0.00150664 2.7797619)
(0.0025130848 0.0025129211 2.8690731)
(0.0015065553 0.0030179881 2.7797639)
(-0.00025817055 0.0027778002 2.5188531)
(0.011102343 -0.001392097 3.5630793)
(0.013295439 0.0064387381 3.7950135)
(0.01185751 0.011858115 3.8610667)
(0.0064373021 0.013295222 3.795015)
(-0.0013924623 0.011101749 3.5630817)
(0.027330779 -0.0025407213 4.0554229)
(0.032474515 0.015814031 4.1240574)
(0.027439522 0.027440721 4.1240097)
(0.01581192 0.032474411 4.1240582)
(-0.0025419768 0.027329911 4.0554242)
(0.044540272 -0.00062438223 4.1325395)
(0.044344582 0.021108001 4.0857406)
(0.033256657 0.033258383 4.0596229)
(0.021105691 0.044345156 4.0857409)
(-0.00062609544 0.044539847 4.1325398)
(6.5305802e-06 3.3017036e-05 0.96571053)
(-2.9337463e-05 7.2943413e-05 1.0956019)
(-1.4407982e-05 -1.5643164e-05 1.1422195)
(7.442593e-05 -3.0132726e-05 1.095603)
(3.4613088e-05 6.4616842e-06 0.96571195)
(0.0020929561 -0.00035200374 2.5217588)
(0.0022577287 0.0010871757 2.7852048)
(0.0018666519 0.0018655243 2.8756783)
(0.0010886543 0.0022570385 2.785207)
(-0.00034986813 0.0020929574 2.5217618)
(0.008745075 -0.0014118595 3.5866653)
(0.010502995 0.0048932402 3.8301172)
(0.0092276964 0.0092273236 3.9014012)
(0.0048934619 0.010502571 3.8301191)
(-0.0014106461 0.0087448039 3.5866684)
(0.022230515 -0.0025097369 4.1159898)
(0.027114107 0.012948443 4.2042553)
(0.023104509 0.02310469 4.209697)
(0.012947739 0.027113641 4.2042566)
(-0.0025095326 0.022229808 4.1159919)
(0.038329914 -0.00068144938 4.2219262)
(0.039574564 0.018659469 4.1819389)
(0.02998591 0.029986524 4.156551)
(0.018658458 0.039574496 4.1819398)
(-0.0006817579 0.038329337 4.2219275)
(3.8241632e-06 1.7541283e-05 0.96437705)
(-4.6050251e-05 8.0499796e-05 1.0941057)
(-1.8755777e-05 -2.0571363e-05 1.1407964)
(8.2713927e-05 -4.7251757e-05 1.0941067)
(1.9734889e-05 3.7249922e-06 0.96437807)
(0.0015335944 -0.00038607119 2.5261904)
(0.0016536354 0.00079823655 2.7918319)
(0.0013566244 0.0013544141 2.8835101)
(0.0008014007 0.0016524463 2.791834)
(-0.00038246386 0.0015338032 2.5261929)
(0.0068444499 -0.0013946404 3.6099637)
(0.0082968876 0.0037119529 3.8634602)
(0.0071827178 0.0071811854 3.939313)
(0.0037140873 0.008296226 3.8634624)
(-0.0013917242 0.0068445426 3.6099669)
(0.018059559 -0.0024345697 4.1726733)
(0.022635719 0.010579116 4.279552)
(0.019378214 0.01937719 4.2907109)
(0.010580104 0.022634888 4.2795538)
(-0.0024327041 0.01805914 4.1726761)
(0.032841919 -0.00074991801 4.3071366)
(0.035020884 0.016384895 4.2750637)
(0.026869156 0.026868472 4.2505462)
(0.016385432 0.035020133 4.2750652)
(-0.00074857677 0.032841306 4.3071388)
(8.5378313e-08 1.3289373e-05 0.96365962)
(-5.7752328e-05 8.5229355e-05 1.0933414)
(-1.9450932e-05 -2.174151e-05 1.1401155)
(8.810929e-05 -5.9326661e-05 1.093342)
(1.5999077e-05 -4.154302e-08 0.96365972)
(0.0011104643 -0.00037938069 2.5314737)
(0.0011823558 0.0005885957 2.7992985)
(0.00096745846 0.00096412596 2.8921357)
(0.00059359376 0.0011806794 2.7992999)
(-0.00037428446 0.0011109265 2.5314748)
(0.0053659915 -0.0013211542 3.6327324)
(0.006598744 0.0028423524 3.8952128)
(0.0056345747 0.0056316326 3.9751134)
(0.0028468634 0.0065979132 3.8952145)
(-0.0013162894 0.0053667224 3.6327346)
(0.014732696 -0.0023185211 4.2257122)
(0.018808825 0.0085750305 4.3498593)
(0.016220077 0.016217408 4.3668947)
(0.0085784336 0.018807686 4.3498611)
(-0.0023145066 0.014733026 4.2257148)
(0.028160433 -0.00080632442 4.3877611)
(0.031117682 0.014441158 4.3646953)
(0.024099199 0.024096544 4.3409763)
(0.014444138 0.031116104 4.3646971)
(-0.00080265517 0.028160168 4.3877636)
(-7.5560591e-06 9.4574846e-06 0.9634817)
(-7.0702796e-05 8.0058097e-05 1.0932016)
(-2.3200286e-05 -2.577775e-05 1.140075)
(8.3289111e-05 -7.2575336e-05 1.0932015)
(1.2317975e-05 -7.7344586e-06 0.96348041)
(0.00076124282 -0.00036477532 2.5375512)
(0.00079837336 0.00041233291 2.8075174)
(0.00065542464 0.00065123635 2.901442)
(0.00041882008 0.00079623175 2.8075176)
(-0.00035866226 0.00076165836 2.5375499)
(0.0041694189 -0.0012358697 3.6552108)
(0.0052472553 0.0021665012 3.9258678)
(0.0044246988 0.0044205244 4.0094065)
(0.0021731167 0.0052462148 3.9258685)
(-0.0012294936 0.004170405 3.6552111)
(0.01203343 -0.0021897764 4.2760001)
(0.015671555 0.006951671 4.4161735)
(0.013609549 0.013605417 4.4391187)
(0.0069572438 0.015670132 4.416175)
(-0.0021840362 0.012034286 4.2760017)
(0.02414813 -0.00085622374 4.4648715)
(0.02758989 0.012707386 4.4519276)
(0.021543746 0.021539385 4.4290185)
(0.012712519 0.027587598 4.4519292)
(-0.00085065887 0.024148164 4.4648737)
(-7.5807676e-06 8.8531077e-06 0.96364521)
(-7.3997498e-05 7.9207584e-05 1.0934088)
(-2.1259996e-05 -2.3795052e-05 1.1403411)
(8.2368361e-05 -7.5850928e-05 1.0934083)
(1.1501308e-05 -7.7750799e-06 0.96364287)
(0.00048483554 -0.00034453079 2.5441265)
(0.00049227666 0.00027379844 2.8161463)
(0.00040695589 0.00040224426 2.911081)
(0.00028114295 0.00048979647 2.8161452)
(-0.00033810427 0.00048516548 2.5441226)
(0.0031836285 -0.0011515217 3.6772011)
(0.0041356245 0.0016306746 3.9553282)
(0.0034546213 0.0034494794 4.0421891)
(0.00163898 0.0041344004 3.9553275)
(-0.0011441684 0.0031847187 3.6771987)
(0.0097977502 -0.0020674106 4.3235593)
(0.01305705 0.0056065284 4.4785033)
(0.011328463 0.011323087 4.5071991)
(0.0056139977 0.013055396 4.478504)
(-0.0020603653 0.0097989834 4.3235591)
(0.020684092 -0.00090603703 4.5380503)
(0.024404638 0.011131727 4.5357774)
(0.019291773 0.019285855 4.5140797)
(0.011138806 0.024401741 4.5357786)
(-0.00089900748 0.020684385 4.5380514)
(-1.7001025e-06 8.0572246e-06 0.96413974)
(-7.0835548e-05 7.8338839e-05 1.0939937)
(-1.4849689e-05 -1.7216755e-05 1.1410222)
(8.0916241e-05 -7.252486e-05 1.093992)
(9.861903e-06 -1.8680952e-06 0.96413601)
(0.00025163051 -0.00032815455 2.5511791)
(0.00022830697 0.00015135907 2.8251876)
(0.00019032 0.00018522255 2.9210831)
(0.00015840792 0.00022545832 2.8251851)
(-0.00032268843 0.00025182037 2.5511726)
(0.0023377434 -0.001080236 3.6989297)
(0.0031783505 0.0011799262 3.983989)
(0.0026368182 0.002631065 4.0739292)
(0.0011886089 0.0031765057 3.983987)
(-0.0010731414 0.0023386605 3.6989245)
(0.0078945413 -0.001960226 4.3691379)
(0.010823474 0.0044702961 4.5378587)
(0.009380312 0.0093742916 4.5720342)
(0.0044785632 0.010821481 4.5378584)
(-0.0019529452 0.0078957981 4.3691355)
(0.01762496 -0.00097206287 4.6083678)
(0.021490259 0.0097006147 4.6174793)
(0.017187537 0.017180888 4.5975872)
(0.0097085524 0.021487022 4.6174796)
(-0.00096462494 0.017625295 4.6083673)
(8.3736631e-06 8.8335425e-06 0.9649403)
(-6.44673e-05 7.8787333e-05 1.0949257)
(-5.8079848e-06 -7.1904426e-06 1.1420503)
(8.0354917e-05 -6.5597231e-05 1.094923)
(9.7608568e-06 8.1671996e-06 0.9649358)
(6.3165173e-05 -0.00031165271 2.5585563)
(7.2363633e-06 4.7709438e-05 2.834483)
(1.0537297e-05 6.1366312e-06 2.9312877)
(5.3592646e-05 4.6441832e-06 2.8344785)
(-0.00030758782 6.2933958e-05 2.5585477)
(0.0016178078 -0.001017374 3.7202118)
(0.0023462946 0.00079759965 4.011695)
(0.0019354381 0.0019298605 4.1044827)
(0.00080573516 0.0023442798 4.0116912)
(-0.0010112935 0.001618317 3.7202038)
(0.0062689493 -0.0018623662 4.4125908)
(0.0089007536 0.0035141658 4.5940715)
(0.0077104198 0.0077044236 4.6333872)
(0.0035223433 0.0088987003 4.5940699)
(-0.0018556972 0.00627006 4.4125859)
(0.01495114 -0.0010283208 4.6753338)
(0.01883611 0.0084038484 4.6960097)
(0.015235556 0.01522886 4.6782728)
(0.0084118309 0.018832859 4.6960089)
(-0.0010213825 0.014951489 4.6753314)
(-3.6491061e-06 6.3819581e-06 0.96596273)
(-7.5291717e-05 6.7997153e-05 1.0960997)
(-1.7842028e-05 -1.7782496e-05 1.1433201)
(6.828901e-05 -7.553251e-05 1.0960969)
(6.5948343e-06 -3.6845313e-06 0.965958)
(-0.00011435006 -0.00029813288 2.5662413)
(-0.00019888105 -4.7577891e-05 2.8440498)
(-0.00015900034 -0.00016171541 2.9417192)
(-4.3551301e-05 -0.00020063025 2.8440446)
(-0.00029572836 -0.00011487493 2.5662316)
(0.00099669107 -0.00096046453 3.741262)
(0.0016226367 0.00047054992 4.0388022)
(0.0013309706 0.0013265061 4.1342576)
(0.00047719909 0.001620869 4.0387973)
(-0.00095610578 0.00099632559 3.7412523)
(0.0048734386 -0.0017671565 4.4545636)
(0.0072345924 0.0027031734 4.6480605)
(0.0062676632 0.0062626027 4.6922571)
(0.0027101493 0.0072327757 4.6480577)
(-0.0017620376 0.0048738415 4.4545566)
(0.01256564 -0.0010693154 4.7399722)
(0.016407981 0.0072317147 4.772649)
(0.013421177 0.01341549 4.757531)
(0.0072384844 0.016405206 4.7726471)
(-0.0010639755 0.012565701 4.7399679)
(-2.8025102e-05 4.2217135e-06 0.96716191)
(-8.706978e-05 5.7881654e-05 1.097465)
(-3.3250938e-05 -3.1846371e-05 1.1447778)
(5.6497095e-05 -8.6409522e-05 1.0974623)
(2.7795088e-06 -2.8017533e-05 0.96715769)
(-0.00026199241 -0.00028751782 2.5741161)
(-0.0003763257 -0.00013769575 2.8537171)
(-0.00031099376 -0.00031161745 2.952201)
(-0.00013667218 -0.0003769994 2.8537115)
(-0.00028788901 -0.00026243817 2.5741066)
(0.00049777169 -0.00089410507 3.7618775)
(0.0010012291 0.00020437621 4.0650773)
(0.00081709636 0.0008143827 4.1630196)
(0.00020839613 0.00099995439 4.0650715)
(-0.00089228058 0.00049736297 3.761867)
(0.0036768273 -0.0016703637 4.4947745)
(0.0057963594 0.0020285343 4.6994855)
(0.0050335827 0.0050300727 4.7482525)
(0.002033441 0.0057950443 4.6994815)
(-0.0016674973 0.0036768818 4.4947661)
(0.01047905 -0.0010905983 4.8016821)
(0.014212573 0.0061862795 4.8462577)
(0.011757388 0.011753327 4.8339822)
(0.0061911211 0.014210572 4.8462547)
(-0.001087597 0.010478914 4.8016761)
(-3.6338602e-05 6.2384678e-06 0.96852982)
(-9.5010334e-05 5.0967118e-05 1.0990278)
(-4.4565391e-05 -4.1801964e-05 1.1464366)
(4.8268321e-05 -9.3603182e-05 1.0990255)
(3.8496149e-06 -3.6326866e-05 0.96852686)
(-0.00041938652 -0.00027837306 2.5822035)
(-0.00053593384 -0.00020811129 2.8635836)
(-0.00044027473 -0.00043837251 2.9628543)
(-0.00021007189 -0.00053542883 2.8635782)
(-0.00028115905 -0.00042037737 2.5821958)
(3.1222318e-05 -0.00085555058 3.7822737)
(0.00045915494 -4.0096995e-05 4.090885)
(0.00037000533 0.00036965813 4.1911729)
(-3.9256766e-05 0.00045861609 4.0908791)
(-0.00085662422 2.98484e-05 3.7822639)
(0.002643219 -0.0015866502 4.5338472)
(0.0045364932 0.0014412451 4.7492179)
(0.0039534012 0.0039521064 4.8023403)
(0.0014432451 0.0045358791 4.7492134)
(-0.0015866527 0.0026423599 4.5338383)
(0.0086399735 -0.0011057768 4.8615725)
(0.012213049 0.005238758 4.9182159)
(0.010219045 0.010217382 4.909128)
(0.0052406872 0.012212188 4.9182121)
(-0.0011057863 0.0086394069 4.8615654)
(-4.2387729e-05 8.0960161e-06 0.97001647)
(-9.8454533e-05 4.5048226e-05 1.1007214)
(-4.9758481e-05 -4.5892685e-05 1.1482267)
(4.1239595e-05 -9.638762e-05 1.1007198)
(4.9327632e-06 -4.2255812e-05 0.97001485)
(-0.00054689107 -0.00026673495 2.5903514)
(-0.00066928296 -0.0002679164 2.873462)
(-0.00055243628 -0.00054801581 2.9734868)
(-0.00027270858 -0.00066741791 2.8734573)
(-0.00027169569 -0.00054798828 2.5903462)
(-0.00036581268 -0.00081479961 3.802228)
(-1.433789e-05 -0.00024582663 4.1159444)
(-1.9160205e-05 -1.6988141e-05 4.2184412)
(-0.00024829088 -1.378587e-05 4.1159388)
(-0.00081864016 -0.00036762958 3.8022203)
(0.0017470385 -0.0015027871 4.571415)
(0.0034354992 0.00094634736 4.7967949)
(0.0030212841 0.003022357 4.8539998)
(0.00094522642 0.0034357311 4.79679)
(-0.0015055864 0.0017455912 4.571407)
(0.0070128655 -0.0011156857 4.9189174)
(0.010407647 0.004390733 4.9872959)
(0.0088106261 0.0088115064 4.9814906)
(0.0043896189 0.010407951 4.9872914)
(-0.0011187149 0.0070119658 4.9189099)
(-4.8141163e-05 1.0033881e-05 0.97163427)
(-0.00010137175 3.8582862e-05 1.102559)
(-5.454406e-05 -4.9979143e-05 1.1501599)
(3.4090907e-05 -9.8882991e-05 1.1025583)
(6.434964e-06 -4.7920189e-05 0.9716343)
(-0.00065259401 -0.00025481674 2.5986593)
(-0.0007844185 -0.00032353259 2.8834643)
(-0.00065016953 -0.00064363422 2.9842059)
(-0.00033070261 -0.00078138073 2.8834611)
(-0.00026151244 -0.00065364037 2.5986572)
(-0.00071035301 -0.00077702216 3.8220185)
(-0.00043241312 -0.00042987044 4.140625)
(-0.00036912884 -0.00036451974 4.245201)
(-0.00043545102 -0.00043087719 4.1406206)
(-0.00078350192 -0.00071276666 3.8220137)
(0.00095359564 -0.0014291275 4.6081117)
(0.0024534364 0.00051741818 4.8430677)
(0.0021928407 0.0021963419 4.904194)
(0.00051302405 0.0024544672 4.8430632)
(-0.0014348729 0.00095117025 4.6081051)
(0.0055513231 -0.001127703 4.9748422)
(0.0087552758 0.0036231395 5.0549891)
(0.0075112651 0.0075148151 5.0527086)
(0.0036186196 0.0087568067 5.0549843)
(-0.0011337577 0.0055499172 4.9748351)
(-5.2110899e-05 1.2757286e-05 0.9733272)
(-0.00010278827 3.4233616e-05 1.1044826)
(-5.6982522e-05 -5.2105367e-05 1.1521853)
(2.9570663e-05 -0.00010025403 1.1044828)
(9.1882008e-06 -5.1744374e-05 0.97332871)
(-0.00073693464 -0.00024049541 2.6069602)
(-0.00088121898 -0.0003674521 2.8934181)
(-0.00073148954 -0.00072327489 2.9948698)
(-0.00037602679 -0.00087724296 2.8934163)
(-0.00024807627 -0.0007379177 2.6069615)
(-0.0010179332 -0.00074228567 3.8413525)
(-0.0008035409 -0.00058459608 4.1646126)
(-0.00066928145 -0.00066265035 4.2711954)
(-0.0005925893 -0.00080089269 4.1646092)
(-0.00075060134 -0.0010206248 3.8413517)
(0.00024479459 -0.0013659605 4.6434744)
(0.0015892299 0.00014435948 4.8874761)
(0.0014710051 0.0014765362 4.9522812)
(0.00013723541 0.0015910782 4.8874722)
(-0.0013737396 0.00024200348 4.6434708)
(0.0042517109 -0.0011370424 5.0284932)
(0.0072673269 0.0029308658 5.1199549)
(0.0063197306 0.0063254639 5.1211895)
(0.0029237347 0.0072697997 5.1199503)
(-0.0011452434 0.0042501607 5.0284872)
(-5.6876302e-05 1.4419641e-05 0.97511698)
(-0.00010380079 2.7366135e-05 1.106512)
(-5.8705935e-05 -5.4043694e-05 1.1543093)
(2.3030183e-05 -0.00010142496 1.1065132)
(1.1111638e-05 -5.6459139e-05 0.97511955)
(-0.00080943754 -0.00022852825 2.61537)
(-0.0009637147 -0.00041176004 2.9034487)
(-0.00079733624 -0.00078814156 3.0055605)
(-0.00042071258 -0.00095915557 2.9034486)
(-0.00023644542 -0.00081042529 2.6153741)
(-0.0012868548 -0.00071105304 3.8605404)
(-0.001131109 -0.00072891653 4.1882961)
(-0.00095255764 -0.00094442503 4.2967345)
(-0.00073829282 -0.0011274256 4.1882943)
(-0.00072057079 -0.0012896151 3.8605434)
(-0.00039146559 -0.001313457 4.6781722)
(0.00080493505 -0.00018139191 4.9308713)
(0.00081519398 0.00082227438 4.9992539)
(-0.00019033507 0.00080732586 4.9308686)
(-0.0013229842 -0.0003949855 4.6781711)
(0.0030790066 -0.0011474454 5.0810413)
(0.0059036407 0.0023065646 5.183804)
(0.0052312729 0.0052386853 5.1887201)
(0.0022970412 0.0059068904 5.1837999)
(-0.0011575408 0.0030766512 5.081037)
(-6.108933e-05 1.6207079e-05 0.97695368)
(-0.00010507601 2.2268039e-05 1.1086)
(-6.1980928e-05 -5.8206312e-05 1.1564943)
(1.8577339e-05 -0.00010287908 1.1086016)
(1.3294187e-05 -6.074187e-05 0.9769574)
(-0.0008699381 -0.0002157435 2.6237289)
(-0.0010346412 -0.0004460245 2.9134058)
(-0.00085584023 -0.00084698478 3.0161598)
(-0.0004547809 -0.0010297563 2.9134071)
(-0.00022356467 -0.00087090375 2.6237361)
(-0.0015080159 -0.00067576956 3.8792766)
(-0.0014101655 -0.00084211721 4.2113699)
(-0.0011798855 -0.0011712585 4.3215978)
(-0.00085238157 -0.001405832 4.2113697)
(-0.00068584371 -0.0015107585 3.8792838)
(-0.00095840962 -0.0012650921 4.711656)
(0.00011993344 -0.00046233269 4.9725927)
(0.00024468303 0.00025237939 5.044334)
(-0.00047266636 0.00012285243 4.9725908)
(-0.0012747599 -0.00096077171 4.7116588)
(0.0020175561 -0.0011670014 5.1315247)
(0.0046749888 0.0017349752 5.2450611)
(0.0042280396 0.0042361932 5.253574)
(0.0017246444 0.0046783774 5.2450576)
(-0.0011768687 0.0020160982 5.1315224)
(-6.5434322e-05 1.529631e-05 0.97886889)
(-0.00010521392 1.5984437e-05 1.1107693)
(-6.3981462e-05 -6.1429732e-05 1.1587649)
(1.3212733e-05 -0.00010346588 1.1107707)
(1.3066731e-05 -6.5107129e-05 0.97887339)
(-0.00093290871 -0.00021147068 2.6321752)
(-0.0010971631 -0.00047969391 2.9234146)
(-0.00090684405 -0.00089928038 3.0268096)
(-0.0004874317 -0.001092226 2.9234161)
(-0.0002184828 -0.00093332326 2.6321848)
(-0.0017169391 -0.00065564608 3.8979049)
(-0.0016560355 -0.00094675028 4.2341843)
(-0.0013791849 -0.0013710749 4.3461762)
(-0.00095698032 -0.0016515418 4.2341853)
(-0.00066539621 -0.0017187296 3.8979156)
(-0.0014259874 -0.0012108793 4.7446451)
(-0.00049451469 -0.00072330043 5.0135132)
(-0.00026544003 -0.00025775025 5.088533)
(-0.00073406716 -0.000491599 5.013513)
(-0.0012205374 -0.0014279249 4.7446515)
(0.0010890792 -0.0011408549 5.1811486)
(0.0035426842 0.0012341069 5.3054546)
(0.0033057569 0.0033138586 5.3176823)
(0.0012233455 0.0035460316 5.3054518)
(-0.0011505085 0.0010877869 5.1811482)
(-6.7407297e-05 1.5632479e-05 0.98081764)
(-0.00010421845 1.1134795e-05 1.1129747)
(-6.5095851e-05 -6.3667915e-05 1.1610695)
(9.3441475e-06 -0.00010323507 1.112976)
(1.4438601e-05 -6.7178963e-05 0.98082235)
(-0.00098166126 -0.00020483321 2.64056)
(-0.0011473039 -0.00050754717 2.9333208)
(-0.00094967959 -0.00094369214 3.0373278)
(-0.0005140202 -0.0011433018 2.9333224)
(-0.00021012566 -0.00098172424 2.6405708)
(-0.001897891 -0.00063455989 3.9161254)
(-0.0018729448 -0.0010383062 4.2564024)
(-0.0015559789 -0.001548749 4.3700559)
(-0.0010475963 -0.0018684384 4.2564036)
(-0.00064272661 -0.0018987178 3.916138)
(-0.0018421846 -0.0011603858 4.7765606)
(-0.0010394221 -0.00095000926 5.0529366)
(-0.00072187615 -0.00071497125 5.1310074)
(-0.00096012668 -0.0010365123 5.0529366)
(-0.0011689197 -0.0018432583 4.776569)
(0.00025881821 -0.0011123941 5.2288304)
(0.0025192483 0.00079071421 5.3633504)
(0.0024625284 0.0024699427 5.3791619)
(0.00078058622 0.0025222495 5.3633486)
(-0.0011207469 0.00025802691 5.228832)
(-6.9644292e-05 1.5866801e-05 0.98282134)
(-0.00010520895 7.2630544e-06 1.1152354)
(-6.7003107e-05 -6.6501721e-05 1.1634393)
(6.580494e-06 -0.0001049536 1.1152373)
(1.5809522e-05 -6.9508009e-05 0.98282585)
(-0.0010228984 -0.00019930922 2.6489952)
(-0.0011894778 -0.00052833571 2.943239)
(-0.00098759257 -0.00098303186 3.0478737)
(-0.00053325681 -0.0011869705 2.9432422)
(-0.00020230147 -0.0010226148 2.6490061)
(-0.0020542675 -0.00061739132 3.9342386)
(-0.002059452 -0.0011124351 4.2783721)
(-0.0017116961 -0.0017050777 4.3936899)
(-0.0011202126 -0.0020555325 4.2783747)
(-0.00062315565 -0.0020545249 3.9342524)
(-0.0022215734 -0.0011256546 4.8080672)
(-0.0015573135 -0.0011707066 5.0917316)
(-0.0011360145 -0.0011296444 5.1728546)
(-0.0011788701 -0.0015536974 5.0917331)
(-0.0011322102 -0.0022221193 4.8080774)
(-0.00050970976 -0.0010830474 5.2758814)
(0.0015670546 0.00037930434 5.4206538)
(0.0016880907 0.0016939928 5.4401265)
(0.00037091048 0.0015700649 5.4206525)
(-0.0010897543 -0.00050993575 5.2758846)
(-7.2419566e-05 1.8910933e-05 0.98484362)
(-0.00010850558 2.3995893e-06 1.1175229)
(-6.8998088e-05 -6.9668328e-05 1.1658286)
(2.9419674e-06 -0.00010874309 1.1175248)
(1.9688774e-05 -7.2376766e-05 0.98484741)
(-0.0010608445 -0.00018832287 2.6573442)
(-0.0012402759 -0.0005544638 2.9530455)
(-0.0010226312 -0.0010201321 3.0582671)
(-0.00055704587 -0.0012385905 2.9530494)
(-0.00018931102 -0.0010602748 2.6573541)