/*--------------------------------*- C++ -*----------------------------------*\
| =========                 |                                                 |
| \\      /  F ield         | OpenFOAM: The Open Source CFD Toolbox           |
|  \\    /   O peration     | Version:  2.3.x                                 |
|   \\  /    A nd           | Web:      www.OpenFOAM.org                      |
|    \\/     M anipulation  |                                                 |
\*---------------------------------------------------------------------------*/
FoamFile
{
    version     2.0;
    format      ascii;
    class       volScalarField;
    location    "0.027";
    object      C;
}
// * * * * * * * * * * * * * * * * * * * * * * * * * * * * * * * * * * * * * //

dimensions      [0 -3 0 0 1 0 0];

internalField   nonuniform List<scalar> 
10000
(
1.6361435e-05
1.748185e-05
1.7723574e-05
1.7481851e-05
1.6361437e-05
1.9541804e-05
2.0038538e-05
2.0170607e-05
2.0038536e-05
1.9541802e-05
2.0789005e-05
2.100211e-05
2.1055808e-05
2.10021e-05
2.0788991e-05
2.1169966e-05
2.124031e-05
2.1254268e-05
2.1240308e-05
2.1169962e-05
2.1270909e-05
2.1288723e-05
2.1291106e-05
2.1288723e-05
2.1270909e-05
1.9096631e-06
3.1488267e-06
3.8617154e-06
3.1488232e-06
1.9096597e-06
1.0593267e-05
1.2708475e-05
1.352575e-05
1.2708468e-05
1.0593253e-05
1.7787019e-05
1.9306764e-05
1.9691983e-05
1.9306717e-05
1.7786958e-05
2.0459361e-05
2.0910756e-05
2.1002532e-05
2.0910762e-05
2.0459365e-05
2.110937e-05
2.123377e-05
2.1251046e-05
2.1233773e-05
2.1109392e-05
2.5733727e-07
3.6173022e-07
4.2877966e-07
3.617303e-07
2.5733729e-07
6.2657857e-06
8.0147799e-06
8.6522341e-06
8.0147745e-06
6.2657795e-06
1.4125672e-05
1.6234766e-05
1.6950344e-05
1.6234805e-05
1.412571e-05
1.8957786e-05
2.0148289e-05
2.0415898e-05
2.014833e-05
1.895784e-05
2.0740958e-05
2.1104244e-05
2.1156355e-05
2.1104253e-05
2.0741039e-05
9.8553134e-08
1.2910873e-07
1.392252e-07
1.2910926e-07
9.8554203e-08
3.416179e-06
5.2464851e-06
5.9098635e-06
5.2465022e-06
3.4162109e-06
1.1103657e-05
1.3589014e-05
1.4408933e-05
1.3589054e-05
1.1103712e-05
1.7104279e-05
1.8970871e-05
1.943531e-05
1.8970907e-05
1.7104353e-05
2.0049426e-05
2.0837676e-05
2.0960741e-05
2.0837692e-05
2.0049474e-05
4.8490133e-08
7.2573786e-08
8.1507424e-08
7.2574121e-08
4.8490691e-08
1.8063219e-06
3.2686752e-06
3.9206365e-06
3.2686909e-06
1.806342e-06
8.7481589e-06
1.1284385e-05
1.2204169e-05
1.1284411e-05
8.7482041e-06
1.5233419e-05
1.7596625e-05
1.8255365e-05
1.7596637e-05
1.5233455e-05
1.9133589e-05
2.0399456e-05
2.063254e-05
2.0399448e-05
1.9133577e-05
2.6048952e-08
4.1254446e-08
4.8624236e-08
4.1254625e-08
2.6049249e-08
1.0118109e-06
1.9398269e-06
2.445559e-06
1.9398356e-06
1.011822e-06
7.0324769e-06
9.418636e-06
1.0323318e-05
9.4186546e-06
7.0325141e-06
1.3556851e-05
1.6198532e-05
1.7004566e-05
1.6198554e-05
1.3556891e-05
1.8101776e-05
1.9825521e-05
2.018611e-05
1.9825544e-05
1.8101799e-05
1.5822364e-08
2.4142075e-08
2.8743039e-08
2.414212e-08
1.5822481e-08
6.3515314e-07
1.1755251e-06
1.4960671e-06
1.1755277e-06
6.3515783e-07
5.7445913e-06
7.9660397e-06
8.813812e-06
7.9660511e-06
5.7446186e-06
1.2125823e-05
1.4881209e-05
1.5787085e-05
1.4881219e-05
1.2125843e-05
1.7055602e-05
1.9168479e-05
1.9662593e-05
1.9168496e-05
1.7055611e-05
1.0617574e-08
1.5340803e-08
1.7899362e-08
1.5340758e-08
1.0617579e-08
4.3716528e-07
7.6998657e-07
9.6034702e-07
7.6998493e-07
4.3716569e-07
4.7222388e-06
6.8187343e-06
7.6098648e-06
6.8187361e-06
4.7222482e-06
1.0911573e-05
1.3683991e-05
1.4644069e-05
1.3683988e-05
1.0911575e-05
1.6047012e-05
1.8464769e-05
1.908661e-05
1.846478e-05
1.6047014e-05
7.5366807e-09
1.0606789e-08
1.2084559e-08
1.0606733e-08
7.5366538e-09
3.1648496e-07
5.4598442e-07
6.6555878e-07
5.4598198e-07
3.164841e-07
3.8765676e-06
5.8712333e-06
6.6221704e-06
5.8712321e-06
3.8765694e-06
9.8573501e-06
1.2599904e-05
1.3584319e-05
1.2599896e-05
9.8573484e-06
1.5088123e-05
1.7732205e-05
1.8471598e-05
1.7732221e-05
1.5088136e-05
5.4919062e-09
7.7704165e-09
8.7491784e-09
7.7703539e-09
5.4918517e-09
2.343299e-07
4.0825542e-07
4.9241952e-07
4.0825246e-07
2.3432781e-07
3.163155e-06
5.0559515e-06
5.784026e-06
5.0559422e-06
3.1631434e-06
8.9298649e-06
1.1621644e-05
1.2607689e-05
1.1621623e-05
8.9298484e-06
1.4182919e-05
1.6984515e-05
1.7824011e-05
1.6984502e-05
1.4182904e-05
4.0696882e-09
5.8739292e-09
6.6136161e-09
5.8738824e-09
4.0696461e-09
1.7599931e-07
3.1389741e-07
3.7899255e-07
3.1389511e-07
1.7599762e-07
2.5740942e-06
4.3354047e-06
5.0447734e-06
4.3353937e-06
2.5740812e-06
8.0917915e-06
1.0732673e-05
1.171305e-05
1.0732654e-05
8.091777e-06
1.3332544e-05
1.6236562e-05
1.7157935e-05
1.6236548e-05
1.3332532e-05
3.0515484e-09
4.5090788e-09
5.1188023e-09
4.5090358e-09
3.0515077e-09
1.3351685e-07
2.4446359e-07
2.9784707e-07
2.4446139e-07
1.3351515e-07
2.0909685e-06
3.6913278e-06
4.3804186e-06
3.6913113e-06
2.090951e-06
7.3326782e-06
9.9261772e-06
1.0891599e-05
9.9261516e-06
7.3326556e-06
1.2536526e-05
1.5500772e-05
1.6483929e-05
1.5500731e-05
1.2536489e-05
2.3135112e-09
3.4953788e-09
4.0094658e-09
3.4953479e-09
2.3134842e-09
1.0227165e-07
1.9190305e-07
2.364005e-07
1.919014e-07
1.0227048e-07
1.6998327e-06
3.1261583e-06
3.7780121e-06
3.1261411e-06
1.6998176e-06
6.6451076e-06
9.1847812e-06
1.0141531e-05
9.1847593e-06
6.6450871e-06
1.1793902e-05
1.4787729e-05
1.5815687e-05
1.4787691e-05
1.1793869e-05
1.7740207e-09
2.7273979e-09
3.1625887e-09
2.7273729e-09
1.7739998e-09
7.9148498e-08
1.5141582e-07
1.8865711e-07
1.5141442e-07
7.9147552e-08
1.3863627e-06
2.6348141e-06
3.2392635e-06
2.6347949e-06
1.3863479e-06
6.0213333e-06
8.5004379e-06
9.4466468e-06
8.5004151e-06
6.0213074e-06
1.1100779e-05
1.4101798e-05
1.5159451e-05
1.4101753e-05
1.1100737e-05
1.3760415e-09
2.1392758e-09
2.505507e-09
2.1392614e-09
1.3760319e-09
6.1906718e-08
1.199592e-07
1.510311e-07
1.1995834e-07
6.1906245e-08
1.136195e-06
2.2128456e-06
2.7621678e-06
2.2128293e-06
1.1361849e-06
5.4536724e-06
7.8679061e-06
8.8006697e-06
7.8678883e-06
5.4536483e-06
1.0453139e-05
1.3446654e-05
1.4521805e-05
1.3446627e-05
1.045311e-05
1.0794022e-09
1.6867022e-09
1.9911867e-09
1.6866955e-09
1.0793999e-09
4.8932315e-08
9.5446446e-08
1.2117055e-07
9.5445987e-08
4.8932156e-08
9.3646615e-07
1.8553381e-06
2.3446444e-06
1.8553253e-06
9.3645987e-07
4.9355753e-06
7.2814396e-06
8.1986099e-06
7.2814242e-06
4.9355503e-06
9.8458217e-06
1.2821769e-05
1.3904637e-05
1.2821756e-05
9.8458007e-06
8.5563238e-10
1.3378411e-09
1.5878553e-09
1.3378433e-09
8.5563848e-10
3.906023e-08
7.6342092e-08
9.7468342e-08
7.634213e-08
3.9060449e-08
7.7630716e-07
1.5562499e-06
1.9848583e-06
1.5562439e-06
7.7630679e-07
4.4617512e-06
6.7366944e-06
7.6368735e-06
6.736685e-06
4.4617338e-06
9.2753593e-06
1.222827e-05
1.3311833e-05
1.2228283e-05
9.2753573e-06
6.8469679e-10
1.068592e-09
1.2718805e-09
1.0686007e-09
6.8470805e-10
3.1458777e-08
6.1452653e-08
7.8700018e-08
6.1453076e-08
3.145924e-08
6.4702729e-07
1.3084141e-06
1.6792889e-06
1.3084154e-06
6.4703166e-07
4.0278876e-06
6.2295631e-06
7.1115774e-06
6.2295603e-06
4.0278799e-06
8.7375746e-06
1.1663827e-05
1.2742942e-05
1.1663861e-05
8.7375883e-06
5.5246935e-10
8.6022948e-10
1.0246629e-09
8.6024354e-10
5.5248502e-10
2.5534851e-08
4.9828116e-08
6.3875343e-08
4.9828859e-08
2.5535529e-08
5.4186111e-07
1.1041538e-06
1.4227934e-06
1.1041621e-06
5.4187033e-07
3.6305665e-06
5.7568399e-06
6.6198841e-06
5.7568478e-06
3.6305759e-06
8.2300222e-06
1.1128363e-05
1.22001e-05
1.112842e-05
8.2300572e-06
4.4895939e-10
6.9820163e-10
8.3121713e-10
6.9821805e-10
4.4897671e-10
2.0863981e-08
4.0710935e-08
5.2169946e-08
4.0711839e-08
2.0864748e-08
4.5562781e-07
9.3596676e-07
1.2091248e-06
9.3598011e-07
4.5563994e-07
3.2668563e-06
5.3152196e-06
6.15863e-06
5.3152385e-06
3.2668831e-06
7.7492577e-06
1.0618584e-05
1.1681058e-05
1.0618654e-05
7.7493098e-06
3.6703751e-10
5.7117088e-10
6.7926922e-10
5.7118796e-10
3.6705579e-10
1.7142859e-08
3.3509085e-08
4.2903184e-08
3.3510047e-08
1.7143681e-08
3.8441075e-07
7.9707583e-07
1.0316264e-06
7.970925e-07
3.844251e-07
2.9344154e-06
4.9021975e-06
5.7253635e-06
4.9022293e-06
2.9344623e-06
7.2937135e-06
1.0134033e-05
1.1186795e-05
1.0134115e-05
7.2937849e-06
3.0164347e-10
4.7069292e-10
5.5923689e-10
4.7070901e-10
3.016609e-10
1.4154943e-08
2.7773619e-08
3.5531775e-08
2.7774536e-08
1.4155729e-08
3.2518207e-07
6.8177846e-07
8.8408564e-07
6.8179596e-07
3.251967e-07
2.6310324e-06
4.5152439e-06
5.317404e-06
4.5152871e-06
2.6310941e-06
6.8606049e-06
9.6710237e-06
1.0713883e-05
9.6711094e-06
6.8606901e-06
2.489211e-10
3.905421e-10
4.6388474e-10
3.9055629e-10
2.4893685e-10
1.1732403e-08
2.3169224e-08
2.9638766e-08
2.3170042e-08
1.173312e-08
2.7567155e-07
5.8534588e-07
7.6083122e-07
5.853626e-07
2.756856e-07
2.3549438e-06
4.1527221e-06
4.9329201e-06
4.1527749e-06
2.3550189e-06
6.4491702e-06
9.2294093e-06
1.026302e-05
9.229494e-06
6.4492679e-06
2.0618014e-10
3.2582591e-10
3.8722641e-10
3.2583773e-10
2.0619392e-10
9.7582129e-09
1.9428241e-08
2.4871294e-08
1.942893e-08
9.7588475e-09
2.3418133e-07
5.0415208e-07
6.5723951e-07
5.0416705e-07
2.3419462e-07
2.1044079e-06
3.8128024e-06
4.5697996e-06
3.8128611e-06
2.1044849e-06
6.0571505e-06
8.8054794e-06
9.8301916e-06
8.8055585e-06
6.0572543e-06
1.7134544e-10
2.730411e-10
3.2500415e-10
2.7304977e-10
1.7135679e-10
8.1413495e-09
1.6358994e-08
2.0978825e-08
1.6359501e-08
8.1418801e-09
1.9930715e-07
4.3529638e-07
5.6964289e-07
4.353084e-07
1.9931873e-07
1.877631e-06
3.4946387e-06
4.2269692e-06
3.4946992e-06
1.8777057e-06
5.6842408e-06
8.3996963e-06
9.4163599e-06
8.3997656e-06
5.6843462e-06
1.4280146e-10
2.2972368e-10
2.7394818e-10
2.2973022e-10
1.4280993e-10
6.810243e-09
1.3826218e-08
1.7766614e-08
1.3826606e-08
6.8106433e-09
1.6987579e-07
3.76685e-07
4.9489131e-07
3.7669547e-07
1.6988484e-07
1.6729329e-06
3.1968114e-06
3.9029721e-06
3.1968681e-06
1.6729969e-06
5.3286724e-06
8.0083859e-06
9.0172195e-06
8.0084448e-06
5.328773e-06
1.1929175e-10
1.9394509e-10
2.3192942e-10
1.9394932e-10
1.1929795e-10
5.709073e-09
1.1723148e-08
1.5108979e-08
1.1723409e-08
5.7093675e-09
1.4496011e-07
3.2657575e-07
4.3111264e-07
3.2658356e-07
1.4496704e-07
1.4886798e-06
2.918744e-06
3.5971332e-06
2.9187911e-06
1.4887347e-06
4.9907369e-06
7.6328214e-06
8.634316e-06
7.6328654e-06
4.9908284e-06
9.9891969e-11
1.6416783e-10
1.9700112e-10
1.6417033e-10
9.9895725e-11
4.7966193e-09
9.9637983e-09
1.2888184e-08
9.9639595e-09
4.7968001e-09
1.2385755e-07
2.8345356e-07
3.7617505e-07
2.8345917e-07
1.2386205e-07
1.3234241e-06
2.6595401e-06
3.3083854e-06
2.6595789e-06
1.323465e-06
4.6685885e-06
7.2691911e-06
8.2632442e-06
7.2692247e-06
4.6686652e-06
8.3829886e-11
1.3926132e-10
1.6774856e-10
1.3926258e-10
8.3831489e-11
4.0382133e-09
8.4851024e-09
1.1018934e-08
8.4851844e-09
4.0382925e-09
1.0595598e-07
2.4624199e-07
3.285918e-07
2.4624496e-07
1.0595816e-07
1.1756342e-06
2.4191987e-06
3.0369739e-06
2.4192227e-06
1.1756584e-06
4.3628241e-06
6.9195458e-06
7.9061824e-06
6.9195635e-06
4.3628773e-06
7.0491865e-11
1.1831706e-10
1.4311475e-10
1.1831756e-10
7.049196e-11
3.4060726e-09
7.2357871e-09
9.4371448e-09
7.2358198e-09
3.4060804e-09
9.0739662e-08
2.1399403e-07
2.8720309e-07
2.1399527e-07
9.0740179e-08
1.0434995e-06
2.1962043e-06
2.7820977e-06
2.1962198e-06
1.0435105e-06
4.0714444e-06
6.5802528e-06
7.5586448e-06
6.580263e-06
4.0714776e-06
5.9393996e-11
1.0070113e-10
1.2229097e-10
1.0070044e-10
5.9392949e-11
2.8782444e-09
6.1803865e-09
8.0938465e-09
6.180348e-09
2.8781969e-09
7.7799771e-08
1.8610309e-07
2.511395e-07
1.8610242e-07
7.7798862e-08
9.2576596e-07
1.9910803e-06
2.5439992e-06
1.9910825e-06
9.2576369e-07
3.795524e-06
6.2541252e-06
7.2236038e-06
6.2541203e-06
3.7955308e-06
5.0129563e-11
8.5818977e-11
1.0463284e-10
8.5817754e-11
5.0128017e-11
2.4361117e-09
5.284994e-09
6.9496896e-09
5.2849233e-09
2.4360397e-09
6.6767777e-08
1.6189974e-07
2.1965444e-07
1.6189815e-07
6.6766175e-08
8.207613e-07
1.8022493e-06
2.3218636e-06
1.8022439e-06
8.2075109e-07
3.532902e-06
5.9371914e-06
6.8967086e-06
5.9371801e-06
3.5328916e-06
4.23887e-11
7.3239893e-11
8.9636022e-11
7.3238321e-11
4.2386795e-11
2.0655026e-09
4.5251829e-09
5.9739312e-09
4.5250893e-09
2.0654124e-09
5.7366519e-08
1.4092717e-07
1.921824e-07
1.4092479e-07
5.7364356e-08
7.2747216e-07
1.6296009e-06
2.1160789e-06
1.6295868e-06
7.2745433e-07
3.2849793e-06
5.6326521e-06
6.5814747e-06
5.6326283e-06
3.2849462e-06
3.5894805e-11
6.257216e-11
7.6861036e-11
6.2570743e-11
3.5892994e-11
1.7536135e-09
3.8783119e-09
5.1393371e-09
3.8782265e-09
1.7535269e-09
4.9326637e-08
1.2270277e-07
1.6815478e-07
1.227005e-07
4.932448e-08
6.4437495e-07
1.4714795e-06
1.9252535e-06
1.4714636e-06
6.4435517e-07
3.0493379e-06
5.3363197e-06
6.2731101e-06
5.3362952e-06
3.049296e-06
3.0448726e-11
5.3537078e-11
6.5988341e-11
5.3535665e-11
3.0446941e-11
1.491275e-09
3.3284502e-09
4.4263074e-09
3.328364e-09
1.491189e-09
4.2462059e-08
1.0691566e-07
1.4719932e-07
1.0691325e-07
4.2459838e-08
5.7071567e-07
1.3278346e-06
1.7498008e-06
1.3278146e-06
5.7069334e-07
2.8276905e-06
5.0522297e-06
5.9759791e-06
5.0521952e-06
2.8276343e-06
2.5859222e-11
4.5852554e-11
5.6699955e-11
4.5851359e-11
2.5857852e-11
1.2695499e-09
2.8590965e-09
3.8148673e-09
2.8590232e-09
1.2694836e-09
3.6574115e-08
9.3185992e-08
1.2886031e-07
9.3183891e-08
3.6572362e-08
5.0515481e-07
1.1968473e-06
1.5879782e-06
1.1968293e-06
5.0513606e-07
2.6175133e-06
4.7757765e-06
5.6847474e-06
4.7757452e-06
2.6174609e-06
2.1997037e-11
3.9329633e-11
4.8786616e-11
3.9328531e-11
2.1995848e-11
1.0824559e-09
2.4593749e-09
3.2921362e-09
2.4593068e-09
1.0823979e-09
3.1537681e-08
8.129189e-08
1.1288822e-07
8.1289858e-08
3.1536102e-08
4.4714631e-07
1.0784444e-06
1.440298e-06
1.0784249e-06
4.4712816e-07
2.4206583e-06
4.5114336e-06
5.4049834e-06
4.5113955e-06
2.4206e-06
1.8726191e-11
3.3760153e-11
4.2004049e-11
3.3759395e-11
1.8725396e-11
9.2357092e-10
2.1169334e-09
2.84253e-09
2.1168861e-09
9.2353201e-10
2.720186e-08
7.0925812e-08
9.8892242e-08
7.0924359e-08
2.7200778e-08
3.9548194e-07
9.7068903e-07
1.3045912e-06
9.7067415e-07
3.954689e-07
2.2342367e-06
4.2540201e-06
5.1302807e-06
4.2539907e-06
2.2341915e-06
1.5965498e-11
2.9027302e-11
3.6219788e-11
2.9026658e-11
1.5964824e-11
7.8912963e-10
1.8250413e-09
2.4578813e-09
1.8250007e-09
7.8909642e-10
2.3487061e-08
6.1950947e-08
8.6715099e-08
6.1949654e-08
2.3486116e-08
3.4983969e-07
8.7372985e-07
1.1814661e-06
8.7371538e-07
3.498276e-07
2.0604399e-06
4.0088869e-06
4.8672496e-06
4.0088532e-06
2.0603924e-06
1.361612e-11
2.4971296e-11
3.1245468e-11
2.4970912e-11
1.3615735e-11
6.7441928e-10
1.5740945e-09
2.1259985e-09
1.5740701e-09
6.7440028e-10
2.0276831e-08
5.4110181e-08
7.6025019e-08
5.4109385e-08
2.027628e-08
3.0913848e-07
7.8555344e-07
1.0685356e-06
7.8554401e-07
3.0913108e-07
1.8960405e-06
3.770091e-06
4.6085608e-06
3.7700681e-06
1.8960088e-06
1.1629448e-11
2.1520177e-11
2.7000617e-11
2.1519844e-11
1.1629107e-11
5.7719299e-10
1.3599702e-09
1.8419598e-09
1.359949e-09
5.7717601e-10
1.7524554e-08
4.7323524e-08
6.6734385e-08
4.7322811e-08
1.7524054e-08
2.7325656e-07
7.0651007e-07
9.6659502e-07
7.0650104e-07
2.7324956e-07
1.7436089e-06
3.54379e-06
4.3619842e-06
3.5437637e-06
1.7435756e-06
9.9304953e-12
1.8547812e-11
2.3334125e-11
1.854765e-11
9.9303369e-12
4.9384006e-10
1.1749895e-09
1.5958496e-09
1.1749791e-09
4.9383217e-10
1.5136566e-08
4.1371492e-08
5.8552648e-08
4.1371134e-08
1.513633e-08
2.412001e-07
6.3454047e-07
8.7307947e-07
6.345356e-07
2.411966e-07
1.5995077e-06
3.3231296e-06
4.1190486e-06
3.3231142e-06
1.5994891e-06
8.4925846e-12
1.6016268e-11
2.0203902e-11
1.6016107e-11
8.4924111e-12
4.2314293e-10
1.0170325e-09
1.3851719e-09
1.0170222e-09
4.2313426e-10
1.3089621e-08
3.6221652e-08
5.1449359e-08
3.6221291e-08
1.3089362e-08
2.1301206e-07
5.7024508e-07
7.8903479e-07
5.7023998e-07
2.130082e-07
1.4667e-06
3.1152252e-06
3.8887579e-06
3.1152062e-06
1.4666784e-06
7.2570736e-12
1.3824172e-11
1.7486451e-11
1.3824111e-11
7.2570044e-12
3.6225146e-10
8.79854e-10
1.2017209e-09
8.7985001e-10
3.6224803e-10
1.130642e-08
3.1684732e-08
4.5168102e-08
3.1684588e-08
1.1306317e-08
1.8777202e-07
5.1156432e-07
7.117974e-07
5.1156211e-07
1.8777044e-07
1.3411647e-06
2.9122711e-06
3.6614182e-06
2.9122614e-06
1.3411546e-06
6.2115619e-12
1.1956636e-11
1.5166419e-11
1.1956545e-11
6.2114506e-12
3.1062254e-10
7.6270575e-10
1.0447126e-09
7.6269989e-10
3.1061699e-10
9.779609e-09
2.7762925e-08
3.9721884e-08
2.776272e-08
9.7794444e-09
1.6564981e-07
4.5932928e-07
6.4267369e-07
4.5932623e-07
1.6564736e-07
1.2262322e-06
2.7223413e-06
3.4473236e-06
2.7223274e-06
1.2262174e-06
5.3089099e-12
1.0330083e-11
1.3140661e-11
1.0330045e-11
5.3088556e-12
2.65945e-10
6.6038269e-10
9.0721386e-10
6.6038025e-10
2.6594233e-10
8.4439354e-09
2.4290171e-08
3.4881536e-08
2.4290087e-08
8.4438591e-09
1.457877e-07
4.1149796e-07
5.7895027e-07
4.1149667e-07
1.457866e-07
1.1175415e-06
2.5366626e-06
3.2355055e-06
2.5366555e-06
1.1175345e-06
4.5459893e-12
8.9451457e-12
1.1412199e-11
8.9450708e-12
4.5458901e-12
2.2811569e-10
5.7306754e-10
7.8962818e-10
5.7306275e-10
2.2811077e-10
7.3027067e-09
2.1293348e-08
3.0692192e-08
2.1293183e-08
7.3025619e-09
1.2844864e-07
3.6909671e-07
5.2217417e-07
3.690943e-07
1.2844652e-07
1.0187494e-06
2.3642403e-06
3.037547e-06
2.3642285e-06
1.0187369e-06
3.8841113e-12
7.7315474e-12
9.8934217e-12
7.7314991e-12
3.8840443e-12
1.9522257e-10
4.9634048e-10
6.8600724e-10
4.9633743e-10
1.9521927e-10
6.2999653e-09
1.862497e-08
2.6947568e-08
1.8624867e-08
6.2998702e-09
1.1283212e-07
3.3011559e-07
4.6961945e-07
3.3011413e-07
1.1283078e-07
9.2521585e-07
2.1953654e-06
2.8412088e-06
2.1953579e-06
9.2520809e-07
3.3259998e-12
6.7000102e-12
8.5996333e-12
6.6999304e-12
3.3258982e-12
1.67441e-10
4.3099316e-10
5.9755418e-10
4.3098807e-10
1.6743595e-10
5.445908e-09
1.6328709e-08
2.371548e-08
1.6328534e-08
5.4457578e-09
9.926555e-08
2.9573341e-07
4.2303546e-07
2.9573087e-07
9.9263327e-08
8.4087118e-07
2.0399156e-06
2.6593224e-06
2.0399034e-06
8.4085821e-07
2.8393635e-12
5.7903884e-12
7.4552315e-12
5.7903233e-12
2.8392829e-12
1.4316374e-10
3.7320993e-10
5.1908962e-10
3.732058e-10
1.4315974e-10
4.6919915e-09
1.4272173e-08
2.0808647e-08
1.4272031e-08
4.6918726e-09
8.700256e-08
2.6398244e-07
3.7970935e-07
2.6398038e-07
8.7000794e-08
7.6086959e-07
1.8873065e-06
2.4784163e-06
1.8872964e-06
7.6085925e-07
2.4304477e-12
5.0195913e-12
6.4831951e-12
5.0195058e-12
2.4303464e-12
1.2273379e-10
3.2415687e-10
4.5231865e-10
3.241514e-10
1.2272873e-10
4.0525959e-09
1.2509622e-08
1.8309653e-08
1.250943e-08
4.0524422e-09
7.6411141e-08
2.3614884e-07
3.4154367e-07
2.3614597e-07
7.6408776e-08
6.893517e-07
1.7481978e-06
2.3124876e-06
1.7481839e-06
6.8933729e-07
2.0720045e-12
4.3354012e-12
5.6174014e-12
4.3353262e-12
2.0719193e-12
1.0478639e-10
2.8049596e-10
3.9267564e-10
2.8049117e-10
1.0478213e-10
3.4853398e-09
1.0921245e-08
1.6047345e-08
1.0921075e-08
3.4852094e-09
6.6797805e-08
2.1031534e-07
3.0585746e-07
2.1031272e-07
6.6795756e-08
6.2134244e-07
1.6112247e-06
2.1469083e-06
1.6112116e-06
6.2132954e-07
1.7722228e-12
3.7582149e-12
4.885232e-12
3.7581305e-12
1.7721289e-12
8.9756523e-11
2.4360396e-10
3.4215369e-10
2.4359854e-10
8.975181e-11
3.0068641e-09
9.5673139e-09
1.4112964e-08
9.5671186e-09
3.0067178e-09
5.8551824e-08
1.8783554e-07
2.7465715e-07
1.8783247e-07
5.8549462e-08
5.6112516e-07
1.4877207e-06
1.9967302e-06
1.4877049e-06
5.6110972e-07
1.5079559e-12
3.2423059e-12
4.2283215e-12
3.2422307e-12
1.5078755e-12
7.6478432e-11
2.1053815e-10
2.9669493e-10
2.1053331e-10
7.6474393e-11
2.5800658e-09
8.3390278e-09
1.2349521e-08
8.3388508e-09
2.5799389e-09
5.103215e-08
1.6685295e-07
2.4531079e-07
1.6685007e-07
5.1030046e-08
5.0367138e-07
1.3656526e-06
1.8462707e-06
1.365637e-06
5.0365699e-07
1.2882733e-12
2.8097145e-12
3.6761486e-12
2.8096378e-12
1.2881923e-12
6.5427769e-11
1.8277308e-10
2.5842815e-10
1.8276812e-10
6.5423689e-11
2.2224939e-09
7.2993438e-09
1.0852285e-08
7.2991607e-09
2.2223644e-09
4.4634098e-08
1.4875428e-07
2.1988336e-07
1.4875123e-07
4.4631909e-08
4.5333849e-07
1.2569086e-06
1.7115024e-06
1.2568917e-06
4.5332301e-07
1.0934334e-12
2.4201275e-12
3.1768464e-12
2.4200594e-12
1.093364e-12
5.560544e-11
1.5769908e-10
2.2372539e-10
1.5769467e-10
5.5601936e-11
1.9016435e-09
6.3492199e-09
9.476955e-09
6.3490544e-09
1.9015308e-09
3.8768351e-08
1.3175154e-07
1.9580676e-07
1.3174868e-07
3.8766394e-08
4.0511417e-07
1.1489093e-06
1.5758132e-06
1.1488924e-06
4.0509964e-07
9.3268219e-13
2.0959778e-12
2.7604223e-12
2.0959129e-12
9.3261665e-13
4.7493568e-11
1.3681126e-10
1.9474651e-10
1.3680705e-10
4.7490249e-11
1.6350382e-09
5.5519162e-09
8.3194688e-09
5.5517566e-09
1.6349307e-09
3.3824606e-08
1.1723635e-07
1.7516587e-07
1.1723354e-07
3.3822708e-08
3.6336473e-07
1.0539754e-06
1.4559539e-06
1.0539583e-06
3.633502e-07
7.8915671e-13
1.8015998e-12
2.3806209e-12
1.8015428e-12
7.8910082e-13
4.0235062e-11
1.1778873e-10
1.682386e-10
1.1778502e-10
4.0232226e-11
1.394235e-09
4.8172706e-09
7.2472025e-09
4.8171278e-09
1.394142e-09
2.9264368e-08
1.0349711e-07
1.5547088e-07
1.0349451e-07
2.9262681e-08
3.2315693e-07
9.5911239e-07
1.3345239e-06
9.5909562e-07
3.231434e-07
6.7182683e-13
1.5590022e-12
2.0669397e-12
1.5589504e-12
6.7177643e-13
3.429644e-11
1.0209638e-10
1.4632272e-10
1.0209299e-10
3.4293878e-11
1.1961099e-09
4.2072063e-09
6.3543952e-09
4.2070752e-09
1.1960253e-09
2.5463154e-08
9.190814e-08
1.3879465e-07
9.1905714e-08
2.5461598e-08
2.8880708e-07
8.7695298e-07
1.2289041e-06
8.769368e-07
2.8879424e-07
5.6629287e-13
1.3365789e-12
1.7780333e-12
1.336534e-12
5.6625028e-13
2.8942987e-11
8.7667758e-11
1.2607714e-10
8.7664818e-11
2.8940817e-11
1.0158351e-09
3.6397376e-09
5.5192401e-09
3.639622e-09
1.0157626e-09
2.193199e-08
8.084071e-08
1.227374e-07
8.0838501e-08
2.1930623e-08
2.5551553e-07
7.9422099e-07
1.1210612e-06
7.9420543e-07
2.5550375e-07
4.8097048e-13
1.1553973e-12
1.5422448e-12
1.1553578e-12
4.809334e-13
2.4611975e-11
7.590515e-11
1.0954045e-10
7.5902561e-11
2.4610082e-11
8.6924208e-10
3.1743547e-09
4.8327361e-09
3.1742521e-09
8.691785e-10
1.9026163e-08
7.1634817e-08
1.0933641e-07
7.1632823e-08
1.9024947e-08
2.2749715e-07
7.2374531e-07
1.0288673e-06
7.2373078e-07
2.2748638e-07
4.0358611e-13
9.8744573e-13
1.3226106e-12
9.8741203e-13
4.035551e-13
2.0674991e-11
6.496925e-11
9.4088987e-11
6.4967034e-11
2.0673404e-11
7.3473613e-10
2.736663e-09
4.1832436e-09
2.736574e-09
7.3468228e-10
1.630456e-08
6.2749721e-08
9.629236e-08
6.274794e-08
1.6303506e-08
2.0013189e-07
6.5209752e-07
9.33807e-07
6.5208389e-07
2.0012217e-07
3.4184474e-13
8.5253581e-13
1.1459153e-12
8.5250689e-13
3.4181846e-13
1.7532363e-11
5.6179839e-11
8.1651241e-11
5.6177934e-11
1.7531016e-11
6.2687151e-10
2.3830074e-09
3.6574733e-09
2.3829303e-09
6.2682553e-10
1.4098237e-08
5.547815e-08
8.5587764e-08
5.5476579e-08
1.4097325e-08
1.7748975e-07
5.9219268e-07
8.5410617e-07
5.9218022e-07
1.7748111e-07
2.8531479e-13
7.2585817e-13
9.791253e-13
7.2583389e-13
2.8529307e-13
1.4648296e-11
4.7901426e-11
6.9872885e-11
4.7899822e-11
1.4647181e-11
5.2694461e-10
2.0460476e-09
3.1533336e-09
2.0459818e-09
5.2690616e-10
1.2011839e-08
4.837071e-08
7.50316e-08
4.8369335e-08
1.201106e-08
1.5516687e-07
5.3057192e-07
7.7091983e-07
5.3056051e-07
1.5515922e-07
2.409194e-13
6.2579823e-13
8.4724168e-13
6.2577775e-13
2.4090138e-13
1.2382681e-11
4.1360416e-11
6.0556696e-11
4.135906e-11
1.2381754e-11
4.481216e-10
1.7785608e-09
2.7526063e-09
1.7785047e-09
4.4808944e-10
1.03499e-08
4.2663471e-08
6.6537377e-08
4.2662277e-08
1.0349239e-08
1.3705419e-07
4.8013529e-07
7.0270028e-07
4.8012502e-07
1.3704751e-07
1.9982151e-13
5.3039994e-13
7.2076343e-13
5.3038304e-13
1.998068e-13
1.0280299e-11
3.5104077e-11
5.1592094e-11
3.5102956e-11
1.0279542e-11
3.7427285e-10
1.5197295e-09
2.3621395e-09
1.5196826e-09
3.7424632e-10
8.7602146e-09
3.6999553e-08
5.8027507e-08
3.699853e-08
8.7596598e-09
1.1898984e-07
4.2750041e-07
6.3041416e-07
4.2749122e-07
1.1898405e-07
1.6814914e-13
4.5656416e-13
6.2282421e-13
4.5655007e-13
1.6813714e-13
8.659978e-12
3.0261636e-11
4.4650211e-11
3.02607e-11
8.6593591e-12
3.1715249e-10
1.3185872e-09
2.0584932e-09
1.3185477e-09
3.1713069e-10
7.519896e-09
3.2552734e-08
5.1337299e-08
3.2551854e-08
7.5194331e-09
1.0466182e-07
3.8546935e-07
5.7263172e-07
3.8546116e-07
1.0465685e-07
1.3844844e-13
3.8486214e-13
5.2707763e-13
3.8485072e-13
1.3843879e-13
7.1367259e-12
2.5543134e-11
3.783938e-11
2.5542373e-11
7.1362274e-12
2.6292247e-10
1.1202804e-09
1.7567809e-09
1.1202479e-09
2.6290476e-10
6.3171914e-09
2.8057159e-08
4.4503667e-08
2.805642e-08
6.3168092e-09
9.0169244e-08
3.4081635e-07
5.1024349e-07
3.4080918e-07
9.0165011e-08
1.16083e-13
3.30737e-13
4.5481532e-13
3.3072753e-13
1.1607522e-13
5.9898796e-12
2.1982295e-11
3.2700737e-11
2.1981663e-11
5.9894771e-12
2.2196972e-10
9.7012787e-10
1.5283462e-09
9.701007e-10
2.2195533e-10
5.4020393e-09
2.4622406e-08
3.9279883e-08
2.4621775e-08
5.401724e-09
7.898122e-08
3.0618995e-07
4.618634e-07
3.061836e-07
7.8977627e-08
9.4762747e-14
2.7696537e-13
3.8246416e-13
2.7695785e-13
9.4756596e-14
4.8937474e-12
1.8431837e-11
2.7535965e-11
1.8431334e-11
4.8934287e-12
1.8242457e-10
8.1861639e-10
1.2957737e-09
8.1859454e-10
1.8241309e-10
4.4988576e-09
2.106878e-08
3.3813183e-08
2.1068261e-08
4.498602e-09
6.7453056e-08
2.6856463e-07
4.0836825e-07
2.685592e-07
6.7450059e-08
7.9163978e-14
2.3763974e-13
3.2960255e-13
2.3763352e-13
7.9159062e-14
4.0921484e-12
1.583692e-11
2.3765182e-11
1.5836503e-11
4.0918933e-12
1.534374e-10
7.0759332e-10
1.1255106e-09
7.0757508e-10
1.5342815e-10
3.8326189e-09
1.8444424e-08
2.977778e-08
1.8443983e-08
3.83241e-09
5.8844958e-08
2.4042525e-07
3.6840345e-07
2.4042048e-07
5.8842438e-08
6.3963796e-14
1.9739885e-13
2.750134e-13
1.9739403e-13
6.396e-14
3.3088245e-12
1.3171102e-11
1.9854826e-11
1.3170778e-11
3.3086273e-12
1.2480275e-10
5.9213335e-10
9.4660011e-10
5.9211902e-10
1.2479554e-10
3.1592936e-09
1.5646016e-08
2.541911e-08
1.5645661e-08
3.1591282e-09
4.9748952e-08
2.0892214e-07
3.228038e-07
2.0891814e-07
4.9746901e-08
5.3260099e-14
1.6918266e-13
2.3680947e-13
1.6917872e-13
5.3257102e-14
2.7576909e-12
1.1304014e-11
1.7121573e-11
1.1303748e-11
2.7575348e-12
1.0462568e-10
5.1112681e-10
8.2131693e-10
5.1111494e-10
1.0461994e-10
2.6825711e-09
1.3669973e-08
2.2345803e-08
1.3669674e-08
2.6824374e-09
4.3247594e-08
1.8645054e-07
2.9035195e-07
1.8644707e-07
4.3245891e-08
4.2485131e-14
1.3909072e-13
1.9562726e-13
1.3908776e-13
4.24829e-14
2.201151e-12
9.3040175e-12
1.4161437e-11
9.3038176e-12
2.2010346e-12
8.4011504e-11
4.2324455e-10
6.8376569e-10
4.232355e-10
8.4007185e-11
2.1835449e-09
1.1471361e-08
1.8876688e-08
1.1471128e-08
2.1834426e-09
3.6116155e-08
1.6019642e-07
2.5164577e-07
1.6019359e-07
3.6114813e-08
3.5317564e-14
1.1924737e-13
1.6854574e-13
1.19245e-13
3.5315841e-14
1.8314681e-12
7.9876199e-12
1.2218692e-11
7.9874592e-12
1.8313781e-12
7.0313896e-11
3.6536525e-10
5.9342955e-10
3.6535789e-10
7.0310526e-11
1.8510193e-09
1.0016413e-08
1.6586474e-08
1.001622e-08
1.8509381e-09
3.1335309e-08
1.4270046e-07
2.2593986e-07
1.4269806e-07
3.1334215e-08
2.7678e-14
9.6647554e-14
1.3732934e-13
9.6645879e-14
2.7676799e-14
1.4359818e-12
6.4806357e-12
9.9671208e-12
6.4805216e-12
1.4359189e-12
5.5469669e-11
2.9820549e-10
4.8720791e-10
2.9820016e-10
5.5467285e-11
1.4810577e-09
8.2839073e-09
1.3816249e-08
8.2837625e-09
1.4809989e-09
2.5744695e-08
1.2080777e-07
1.9306066e-07
1.2080589e-07
2.5743875e-08
2.310538e-14
8.3249447e-14
1.1887322e-13
8.3248165e-14
2.3104491e-14
1.1998816e-12
5.5900347e-12
8.6402697e-12
5.5899468e-12
1.1998349e-12
4.661978e-11
2.5855881e-10
4.246749e-10
2.5855463e-10
4.6617988e-11
1.2603582e-09
7.2584625e-09
1.2180354e-08
7.258346e-09
1.2603131e-09
2.2400534e-08
1.0780066e-07
1.7358534e-07
1.0779909e-07
2.2399883e-08
1.7544717e-14
6.5861419e-14
9.4643245e-14
6.5860636e-14
1.7544188e-14
9.1131632e-13
4.4266647e-12
6.8864391e-12
4.4266104e-12
9.1128834e-13
3.5646988e-11
2.0600653e-10
3.4072827e-10
2.0600383e-10
3.5645887e-11
9.7912079e-10
5.8630938e-09
9.9209681e-09
5.8630139e-09
9.7909184e-10
1.7920985e-08
8.9231826e-08
1.452155e-07
8.9230683e-08
1.7920544e-08
1.5095622e-14
5.8008055e-14
8.3663897e-14
5.8007497e-14
1.509525e-14
7.8500862e-13
3.9043408e-12
6.0964416e-12
3.9043015e-12
7.8498882e-13
3.0851764e-11
1.8244203e-10
3.0294617e-10
1.8243999e-10
3.0850965e-11
8.5539266e-10
5.2330173e-09
8.8954151e-09
5.2329541e-09
8.5537085e-10
1.5911535e-08
8.0686438e-08
1.3205588e-07
8.0685491e-08
1.5911188e-08
1.0283789e-14
4.2040095e-14
6.1201682e-14
4.2039973e-14
1.0283697e-14
5.3451218e-13
2.8317588e-12
4.4638504e-12
2.8317489e-12
5.3450705e-13
2.1204826e-11
1.3339867e-10
2.237784e-10
1.3339795e-10
2.1204582e-11
6.0169264e-10
3.8979294e-09
6.7055911e-09
3.8978997e-09
6.0168433e-10
1.1674189e-08
6.2109557e-08
1.0317625e-07
6.2109014e-08
1.1674025e-08
1.6361437e-05
1.748185e-05
1.772357e-05
1.7481847e-05
1.6361434e-05
1.9541802e-05
2.0038536e-05
2.0170609e-05
2.0038539e-05
1.9541804e-05
2.0788991e-05
2.1002102e-05
2.1055814e-05
2.1002114e-05
2.0789007e-05
2.1169962e-05
2.1240309e-05
2.1254269e-05
2.1240311e-05
2.1169967e-05
2.1270909e-05
2.1288723e-05
2.1291106e-05
2.1288723e-05
2.127091e-05
1.9096597e-06
3.148825e-06
3.8617234e-06
3.1488318e-06
1.9096648e-06
1.0593254e-05
1.2708471e-05
1.3525765e-05
1.2708484e-05
1.0593269e-05
1.7786958e-05
1.9306726e-05
1.9691995e-05
1.9306787e-05
1.7787034e-05
2.0459365e-05
2.0910761e-05
2.1002527e-05
2.0910756e-05
2.0459369e-05
2.1109391e-05
2.1233773e-05
2.1251046e-05
2.123377e-05
2.1109365e-05
2.5733732e-07
3.6173073e-07
4.2877985e-07
3.6173125e-07
2.5733799e-07
6.2657805e-06
8.0147792e-06
8.6522384e-06
8.0147916e-06
6.2657986e-06
1.4125711e-05
1.6234817e-05
1.6950352e-05
1.6234798e-05
1.4125705e-05
1.8957839e-05
2.0148324e-05
2.041588e-05
2.0148288e-05
1.8957806e-05
2.0741036e-05
2.1104258e-05
2.1156364e-05
2.1104256e-05
2.0740942e-05
9.8554215e-08
1.291094e-07
1.3922532e-07
1.2910897e-07
9.8553489e-08
3.4162114e-06
5.2465067e-06
5.909867e-06
5.2464947e-06
3.4161907e-06
1.1103713e-05
1.3589068e-05
1.4408955e-05
1.3589042e-05
1.1103678e-05
1.7104356e-05
1.8970933e-05
1.9435352e-05
1.8970929e-05
1.7104327e-05
2.0049481e-05
2.0837715e-05
2.0960782e-05