/*--------------------------------*- C++ -*----------------------------------*\
| =========                 |                                                 |
| \\      /  F ield         | OpenFOAM: The Open Source CFD Toolbox           |
|  \\    /   O peration     | Version:  2.3.x                                 |
|   \\  /    A nd           | Web:      www.OpenFOAM.org                      |
|    \\/     M anipulation  |                                                 |
\*---------------------------------------------------------------------------*/
FoamFile
{
    version     2.0;
    format      ascii;
    class       volScalarField;
    location    "0.027";
    object      concSource;
}
// * * * * * * * * * * * * * * * * * * * * * * * * * * * * * * * * * * * * * //

dimensions      [0 -3 -1 0 1 0 0];

internalField   nonuniform List<scalar> 
10000
(
0.0030750656
0.0008349429
0.00049851177
0.00083494209
0.0030750627
4.1397297e-07
1.6904921e-07
1.2922799e-07
1.6904911e-07
4.1397276e-07
3.7544262e-08
3.0740943e-08
2.9307828e-08
3.0740946e-08
3.7544285e-08
2.5867051e-08
2.5080634e-08
2.4940795e-08
2.5080634e-08
2.5867052e-08
2.4705584e-08
2.4607632e-08
2.4596828e-08
2.4607631e-08
2.4705584e-08
0.036386637
0.035671564
0.034600492
0.03567158
0.036386654
0.00036856395
5.4452729e-05
2.7067911e-05
5.4453632e-05
0.0003685713
7.2324344e-07
1.6790624e-07
1.1518815e-07
1.6791914e-07
7.2332201e-07
4.9431653e-08
3.3102692e-08
3.0679371e-08
3.3102958e-08
4.9432593e-08
2.7694004e-08
2.5478932e-08
2.521394e-08
2.5478945e-08
2.7693983e-08
0.010715484
0.012168976
0.013118448
0.012168958
0.010715461
0.0037475752
0.0010180137
0.00056739629
0.0010179954
0.0037475056
1.2816217e-05
1.7182668e-06
9.1462406e-07
1.7181804e-06
1.2815468e-05
1.7219725e-07
6.1571067e-08
4.96197e-08
6.1567661e-08
1.7218586e-07
3.6801078e-08
2.7936415e-08
2.6962408e-08
2.7936197e-08
3.6796898e-08
0.0051550115
0.0058997248
0.0060385729
0.0058997358
0.0051550473
0.0080578009
0.0041007073
0.00282564
0.0041006412
0.0080576622
0.00010740976
1.3130225e-05
6.2391164e-06
1.3129355e-05
0.00010739978
7.3018743e-07
1.4756672e-07
1.009605e-07
1.4755878e-07
7.3010606e-07
6.065059e-08
3.3561146e-08
3.0834817e-08
3.3560819e-08
6.0645894e-08
0.0028001705
0.0037467854
0.0040351462
0.0037468023
0.0028001999
0.0084723679
0.0067872918
0.0056690869
0.0067872958
0.0084723896
0.00042199105
6.432815e-05
3.0993745e-05
6.4326527e-05
0.00042197607
2.9786746e-06
4.068978e-07
2.3931243e-07
4.0689192e-07
2.978554e-06
1.1716654e-07
4.4947747e-08
3.82887e-08
4.4948477e-08
1.1716776e-07
0.0016070175
0.0022981945
0.0026083821
0.0022982045
0.0016070343
0.0071366897
0.007119415
0.0067909986
0.0071194298
0.0071367163
0.0010115321
0.000203158
0.00010471212
0.00020315405
0.0010115056
1.0138972e-05
1.1254334e-06
5.9104688e-07
1.1253984e-06
1.0138437e-05
2.4741093e-07
6.60283e-08
5.1453491e-08
6.6026907e-08
2.4740412e-07
0.0010253194
0.0014243588
0.0016380271
0.0014243623
0.0010253269
0.0059031905
0.0062594205
0.0063299026
0.0062594436
0.0059032233
0.001785192
0.00046604045
0.00025965361
0.00046603864
0.0017851794
2.7891337e-05
2.9023601e-06
1.4099436e-06
2.9023173e-06
2.7890671e-05
5.2846769e-07
1.0260707e-07
7.2723958e-08
1.0260454e-07
5.2845876e-07
0.00071500838
0.00094723677
0.0010704397
0.00094723535
0.00071500936
0.0049817458
0.0053620215
0.0054799415
0.0053620428
0.0049817681
0.0025922481
0.00085612904
0.00051539021
0.00085613804
0.002592266
6.3807261e-05
6.8358497e-06
3.1749811e-06
6.8358883e-06
6.3807497e-05
1.1040613e-06
1.6496303e-07
1.0640268e-07
1.6496117e-07
1.1040649e-06
0.00052370967
0.00067988291
0.00075192427
0.00067988034
0.00052370855
0.0042331984
0.0046834103
0.0047786039
0.0046834246
0.0042332111
0.0033054274
0.0013461467
0.0008720885
0.0013461688
0.0033054613
0.00012596318
1.4752734e-05
6.734451e-06
1.4752906e-05
0.00012596377
2.2269236e-06
2.7167071e-07
1.6014484e-07
2.7166274e-07
2.2268663e-06
0.00039186485
0.00051394094
0.000562741
0.00051393763
0.00039186169
0.003574947
0.0041465857
0.004252391
0.004146593
0.0035749464
0.0038459705
0.001885181
0.0013074201
0.0018852253
0.0038460358
0.00022166232
2.9324787e-05
1.3441792e-05
2.9325936e-05
0.00022166942
4.3227188e-06
4.5534044e-07
2.4728702e-07
4.5534858e-07
4.3228251e-06
0.00029705731
0.00039913397
0.00043766542
0.0003991313
0.00029705464
0.0029987721
0.0036730159
0.0038176975
0.0036730166
0.0029987636
0.0041968712
0.0024152871
0.0017832964
0.0024153364
0.0041969208
0.00035458841
5.3883806e-05
2.5212698e-05
5.3885874e-05
0.00035459757
8.025189e-06
7.6855628e-07
3.889169e-07
7.6856642e-07
8.0252839e-06
0.00022720555
0.00031368064
0.00034723325
0.00031367802
0.0002272028
0.0025011856
0.0032273785
0.003419729
0.0032273738
0.0025011708
0.004368496
0.0028808249
0.0022534661
0.0028808863
0.0043685476
0.00052473184
9.2068978e-05
4.4439743e-05
9.2074056e-05
0.00052475364
1.4199614e-05
1.2942242e-06
6.1805809e-07
1.2943047e-06
1.4200477e-05
0.00017529605
0.00024823473
0.00027796003
0.0002482327
0.00017529409
0.0020802489
0.002811071
0.003037777
0.0028110614
0.0020802329
0.0043921369
0.0032484455
0.0026720587
0.0032484939
0.0043921601
0.00072793193
0.0001469442
7.3703598e-05
0.0001469512
0.00072795606
2.3917636e-05
2.1545987e-06
9.8400316e-07
2.1547213e-06
2.3918923e-05
0.00013653328
0.00019728208
0.00022352857
0.00019728032
0.00013653168
0.0017307498
0.0024289387
0.002674626
0.0024289249
0.0017307327
0.0043083557
0.0035040977
0.0030126529
0.0035041333
0.0043083606
0.00095732017
0.0002208059
0.0001154635
0.00022081632
0.0009573521
3.8414203e-05
3.5240321e-06
1.559503e-06
3.5242935e-06
3.841695e-05
0.00010740378
0.00015731231
0.00018018785
0.00015731117
0.00010740293
0.0014437632
0.0020852378
0.0023353202
0.0020852227
0.001443749
0.0041535594
0.0036499302
0.0032607803
0.0036499336
0.0041535305
0.0012045123
0.00031479592
0.00017175595
0.00031480509
0.0012045301
5.9020934e-05
5.6412292e-06
2.4484552e-06
5.6415033e-06
5.9023581e-05
8.5333838e-05
0.00012589812
0.00014547058
0.00012589747
8.533351e-05
0.0012091508
0.0017825598
0.0020245301
0.0017825459
0.0012091402
0.003955347
0.0037010584
0.0034154761
0.0037010342
0.0039552968
0.0014603735
0.00042888158
0.00024402471
0.00042888716
0.0014603718
8.7066011e-05
8.8168265e-06
3.7932227e-06
8.8170819e-06
8.7068092e-05
6.8439406e-05
0.00010122953
0.00011768252
0.0001012295
6.8439716e-05
0.0010171523
0.0015210531
0.0017461658
0.0015210435
0.001017148
0.0037326228
0.0036779625
0.0034861505
0.003677909
0.0037325553
0.0017157064
0.00056179348
0.00033287206
0.00056178688
0.001715662
0.00012378256
1.3438601e-05
5.7834825e-06
1.3438408e-05
0.00012377983
5.5359965e-05
8.1875433e-05
9.551555e-05
8.187591e-05
5.5360703e-05
0.00085933321
0.0012984859
0.0015020224
0.0012984823
0.00085933488
0.0034977816
0.0036012961
0.0034885824
0.0036012286
0.0034977125
0.0019617248
0.00071112955
0.00043801365
0.00071110644
0.0019616363
0.00017015651
1.9959507e-05
8.6567959e-06
1.9958506e-05
0.00017014629
4.51163e-05
6.6676795e-05
7.789156e-05
6.66777e-05
4.511742e-05
0.00072879577
0.0011109179
0.0012915487
0.0011109211
0.00072880394
0.0032588716
0.0034886599
0.003440061
0.0034885883
0.0032588118
0.0021909113
0.00087373969
0.00055839434
0.00087369297
0.0021907717
0.00022694292
2.8903885e-05
1.2708841e-05
2.8901189e-05
0.00022691904
3.7004688e-05
5.4701397e-05
6.3903398e-05
5.4702536e-05
3.7005982e-05
0.00062007692
0.0009535432
0.0011122914
0.00095355211
0.00062008972
0.0030211547
0.0033531741
0.003356042
0.0033531111
0.0030211167
0.0023968653
0.0010456536
0.00069207829
0.0010455846
0.0023966942
0.0002944555
4.0817908e-05
1.827628e-05
4.081297e-05
0.00029441631
3.0515276e-05
4.5198582e-05
5.2773719e-05
4.5199819e-05
3.0516693e-05
0.00052895532
0.00082146091
0.00096059926
0.00082147403
0.00052897231
0.0027883848
0.0032040438
0.0032488484
0.0032039969
0.0027883734
0.0025752136
0.0012228962
0.00083677506
0.001222806
0.0025750236
0.00037279072
5.63031e-05
2.5757701e-05
5.6294931e-05
0.0003727324
2.5282661e-05
3.7597285e-05
4.3877294e-05
3.7598491e-05
2.5284054e-05
0.00045228197
0.00071026223
0.00083246246
0.00071027779
0.000452301
0.0025629189
0.0030469077
0.0031268947
0.0030468833
0.0025629361
0.0027226461
0.0014008514
0.00098938836
0.0014007511
0.0027224697
0.00046143805
7.5902602e-05
3.5561041e-05
7.5891155e-05
0.00046136493
2.1023435e-05
3.1470274e-05
3.6733498e-05
3.1471368e-05
2.1024725e-05
0.00038731418
0.00061633295
0.00072435797
0.00061634919
0.00038733372
0.0023468298
0.0028854115
0.0029956614
0.0028854082
0.0023468717
0.0028381352
0.001575622
0.0011469246
0.0015755209
0.0028379938
0.00055985429
0.0001002066
4.8155196e-05
0.00010019174
0.00055976988
1.7539307e-05
2.6473367e-05
3.0930708e-05
2.6474303e-05
1.7540462e-05
0.00033214697
0.00053621494
0.00063230723
0.00053623062
0.00033216641
0.002142007
0.0027219056
0.0028583859
0.0027219228
0.0021420765
0.0029210565
0.0017427116
0.0013056993
0.0017426244
0.0029209701
0.00066669726
0.00012963073
6.3955955e-05
0.00012961378
0.00066661335
1.4675581e-05
2.2358685e-05
2.6174447e-05
2.2359388e-05
1.4676552e-05
0.00028520782
0.00046739955
0.00055345452
0.00046741245
0.00028522565
0.0019497189
0.0025583172
0.0027177856
0.0025583467
0.0019498025
0.0029729647
0.0018991271
0.0014625675
0.0018990632
0.0029729396
0.00078095655
0.00016467032
8.3450613e-05
0.00016465267
0.00078088265
1.2309994e-05
1.8951247e-05
2.2234719e-05
1.8951791e-05
1.2310734e-05
0.0002451403
0.00040810309
0.00048531304
0.00040811435
0.000245155
0.0017698222
0.0023965773
0.0025745098
0.0023966241
0.0017699073
0.0029950105
0.0020410755
0.0016139431
0.0020410432
0.0029950453
0.00090064322
0.00020549568
0.00010697766
0.00020548017
0.00090059344
1.0346707e-05
1.6112556e-05
1.8963687e-05
1.6112918e-05
1.0347258e-05
0.0002108517
0.00035682978
0.00042649311
0.00035683835
0.00021086345
0.0016025202
0.0022383642
0.0024321077
0.0022384148
0.0016026024
0.0029904987
0.0021667326
0.0017570227
0.0021667314
0.0029905879
0.001024621
0.00025245302
0.00013499587
0.00025244202
0.0010246026
8.7148415e-06
1.3730229e-05
1.6221113e-05
1.3730452e-05
8.715185e-06
0.00018151537
0.00031222414
0.00037526618
0.0003122303
0.00018152343
0.0014479013
0.0020836549
0.0022899933
0.0020837058
0.0014479705
0.0029617641
0.0022736718
0.0018883989
0.0022737031
0.0029618922
0.0011503224
0.00030537694
0.00016766351
0.00030537345
0.0011503441
7.3544721e-06
1.1721743e-05
1.3905175e-05
1.1721862e-05
7.3546277e-06
0.00015639229
0.0002733281
0.00033042199
0.00027333197
0.00015639665
0.0013058743
0.0019337669
0.002149215
0.0019338077
0.0013059235
0.0029129558
0.0023618899
0.0020068928
0.0023619432
0.0029130967
0.0012766721
0.00036444306
0.00020539019
0.00036444909
0.0012767331
6.217378e-06
1.0019735e-05
1.1939175e-05
1.0019789e-05
6.2173994e-06
0.00013484588
0.00023927711
0.00029100329
0.00023927942
0.0001348474
0.0011757358
0.0017888267
0.0020101495
0.0017888588
0.0011757666
0.0028460311
0.0024297757
0.0021097972
0.0024298468
0.0028461686
0.0014010072
0.00042915207
0.00024807447
0.00042916818
0.0014011022
5.2653966e-06
8.5778491e-06
1.0264557e-05
8.5778001e-06
5.2653139e-06
0.00011636919
0.0002095487
0.00025631415
0.00020954849
0.00011636829
0.0010571996
0.0016505821
0.0018743425
0.001650599
0.0010572102
0.0027652074
0.0024789383
0.0021973161
0.0024790144
0.0027653224
0.0015225571
0.00049947602
0.00029607543
0.00049950315
0.0015226772
4.4659132e-06
7.3511429e-06
8.8339573e-06
7.3510454e-06
4.4657829e-06
0.00010048914
0.00018350912
0.00022573024
0.00018350756
0.00010048695
0.00094926524
0.0015188619
0.0017421741
0.001518868
0.00094926205
0.0026719311
0.0025086947
0.0022673546
0.0025087661
0.0026720172
0.001638515
0.0005744827
0.00034894037
0.00057451722
0.0016386457
3.7941397e-06
6.3074522e-06
7.6105076e-06
6.3073218e-06
3.7939742e-06
8.6855276e-05
0.00016075091
0.00019880083
0.00016074827
8.6852046e-05
0.00085158225
0.0013947882
0.0016151865
0.0013947825
0.00085156595
0.0025702374
0.0025218618
0.0023216563
0.0025219212
0.0025702862
0.0017486552
0.00065418553
0.00040697541
0.00065422751
0.001748787
3.2274663e-06
5.4166369e-06
6.5611979e-06
5.4165172e-06
3.2273064e-06
7.5109943e-05
0.00014080932
0.00017503721
0.00014080667
7.5106598e-05
0.00076300875
0.001277893
0.0014932797
0.0012778828
0.00076298669
0.0024608349
0.0025179643
0.0023587702
0.0025180065
0.0024608506
0.0018501834
0.00073725906
0.00046942006
0.00073730056
0.0018502979
2.749771e-06
4.6576398e-06
5.6624757e-06
4.6575186e-06
2.7496115e-06
6.5013686e-05
0.00012340392
0.00015414512
0.00012340101
6.5010167e-05
0.00068323684
0.0011690778
0.0013778544
0.0011690616
0.00068320932
0.0023474758
0.0025005438
0.0023814572
0.0025005689
0.0023474596
0.0019435021
0.00082363914
0.00053653438
0.00082368261
0.0019436002
2.3451462e-06
4.0082626e-06
4.889881e-06
4.0081589e-06
2.3450225e-06
5.6295175e-05
0.00010815289
0.00013571506
0.00010815026
5.6292333e-05
0.0006111106
0.0010674822
0.0012683319
0.0010674644
0.00061108562
0.0022301805
0.0024690628
0.0023885397
0.0024690696
0.0022301445
0.0020258493
0.00091166736
0.00060725767
0.00091170132
0.002025909
2.0030216e-06
3.4540265e-06
4.2278562e-06
3.4539301e-06
2.0029136e-06
4.8790991e-05
9.4850056e-05
0.00011954781
9.4847516e-05
4.8788425e-05
0.00054638858
0.00097374451
0.0011659283
0.00097372458
0.00054636396
0.0021123735
0.0024274187
0.0023834766
0.0024274119
0.0021123234
0.0020984017
0.0010013564
0.00068166465
0.0010013879
0.002098442
1.7118925e-06
2.9781949e-06
3.6571289e-06
2.978128e-06
1.7118196e-06
4.229022e-05
8.3176796e-05
0.00010527785
8.3174948e-05
4.2288425e-05
0.00048792981
0.00088671437
0.0010695671
0.00088669772
0.00048791083
0.0019933544
0.0023747524
0.0023651237
0.0023747338
0.001993301
0.0021585789
0.0010909004
0.00075861317
0.0010909164
0.0021585785
1.4650845e-06
2.5718074e-06
3.167829e-06
2.5717503e-06
1.4650226e-06
3.6688233e-05
7.3008216e-05
9.2781791e-05
7.3006601e-05
3.6686682e-05
0.0004356224
0.00080703673
0.0009803468
0.00080702107
0.00043560523
0.0018763263
0.0023150935
0.0023372856
0.0023150711
0.0018762723
0.0022081455
0.0011801909
0.00083795966
0.0011802058
0.0022081382
1.2541027e-06
2.2217442e-06
2.7447616e-06
2.2217098e-06
1.2540671e-06
3.1818938e-05
6.4069961e-05
8.1740217e-05
6.4068942e-05
3.181801e-05
0.0003883826
0.00073333411
0.00089687284
0.00073332277
0.0003883712
0.00175999
0.0022471387
0.0022985813
0.002247112
0.0017599428
0.0022447417
0.0012674989
0.00091859741
0.0012674963
0.0022447027
1.0749584e-06
1.9225007e-06
2.381975e-06
1.922471e-06
1.0749269e-06
2.7621544e-05
5.6289782e-05
7.208741e-05
5.6288905e-05
2.762073e-05
0.00034624378
0.00066625148
0.00082019368
0.00066624159
0.00034623382
0.0016474391
0.0021749489
0.0022529717
0.0021749254
0.0016473982
0.0022706168
0.0013525608
0.0010000057
0.0013525618
0.0022705876
9.2110664e-07
1.6635184e-06
2.0670211e-06
1.663504e-06
9.2109193e-07
2.3959981e-05
4.942791e-05
6.3536479e-05
4.9427459e-05
2.3959586e-05
0.00030816227
0.00060426167
0.00074865388
0.00060425565
0.00030815678
0.0015368155
0.0020966973
0.002198708
0.0020966746
0.0015367846
0.0022836534
0.0014339941
0.0010813894
0.0014339797
0.0022836042
7.9039258e-07
1.4419895e-06
1.7969167e-06
1.4419753e-06
7.903767e-07
2.0805266e-05
4.3459668e-05
5.6072158e-05
4.3459247e-05
2.080486e-05
0.00027430738
0.00054811507
0.00068335554
0.00054810994
0.00027430227
0.001431198
0.0020165089
0.0021398512
0.0020164929
0.001431174
0.00228651
0.0015112332
0.0011616899
0.0015112289
0.0022864837
6.7762402e-07
1.2492808e-06
1.5612979e-06
1.2492754e-06
6.7761776e-07
1.8043258e-05
3.8174624e-05
4.9436273e-05
3.8174462e-05
1.8043098e-05
0.00024367697
0.00049620497
0.0006224728
0.00049620252
0.00024367471
0.0013282324
0.0019320089
0.0020741943
0.0019319955
0.0013282168
0.0022772115
0.0015834397
0.001240682
0.0015834238
0.0022771738
5.8185232e-07
1.0844388e-06
1.3592885e-06
1.0844309e-06
5.8184229e-07
1.5666855e-05
3.3583382e-05
4.3653037e-05
3.3583166e-05
1.5666612e-05
0.00021655067
0.00044940322
0.00056720834
0.00044940084
0.00021654788
0.0012310538
0.0018474722
0.002005953
0.0018474656
0.0012310423
0.002258812
0.0016496896
0.001316624
0.0016496893
0.0022588024
4.9884866e-07
9.4023582e-07
1.182089e-06
9.4023266e-07
4.9884387e-07
1.3578342e-05
2.9498614e-05
3.8488179e-05
2.9498536e-05
1.3578232e-05
0.00019196744
0.00040605753
0.00051562057
0.00040605664
0.0001919662
0.0011368681
0.0017599553
0.0019323989
0.0017599503
0.0011368613
0.0022293192
0.0017098213
0.0013900907
0.0017098125
0.0022293012
4.2845527e-07
8.1698542e-07
1.0302954e-06
8.1697903e-07
4.2844636e-07
1.1785527e-05
2.5956723e-05
3.3995913e-05
2.5956559e-05
1.1785315e-05
0.00017029277
0.00036716196
0.00046903609
0.00036716056
0.00017029057
0.0010489122
0.0016739811
0.0018580091
0.0016739808
0.0010489063
0.0021922207
0.0017625499
0.001458569
0.0017625589
0.0021922287
3.6716027e-07
7.0852717e-07
8.9632635e-07
7.0852308e-07
3.6715426e-07
1.0203608e-05
2.2789377e-05
2.9962745e-05
2.2789277e-05
1.0203467e-05
0.00015060857
0.0003310456
0.00042544628
0.0003310448
0.0001506071
0.00096401095
0.0015860187
0.001779476
0.0015860182
0.00096400626
0.0021453021
0.0018084182
0.0015235869
0.0018084204
0.0021453006
3.1530858e-07
6.16008e-07
7.8177645e-07
6.1600108e-07
3.1529933e-07
8.8501489e-06
2.0050915e-05
2.6464781e-05
2.0050731e-05
8.8499223e-06
0.0001333426
0.00029881049
0.00038630282
0.00029880894
0.00013334016
0.00088552703
0.0015009262
0.0017016551
0.0015009279
0.00088552101
0.0020925651
0.0018458539
0.0015818464
0.0018458724
0.002092583
2.6993799e-07
5.3409221e-07
6.8002131e-07
5.3408652e-07
2.699306e-07
7.6508005e-06
1.7588709e-05
2.3306227e-05
1.7588554e-05
7.6506157e-06
0.00011762119
0.00026878337
0.00034955718
0.00026878192
0.00011761908
0.00080996396
0.0014145647
0.0016206005
0.0014145644
0.00080995702
0.0020313494
0.0018760167
0.0016358781
0.0018760288
0.0020313555
2.3169719e-07
4.6444203e-07
5.9328632e-07
4.6443447e-07
2.3168783e-07
6.6291154e-06
1.5468642e-05
2.0577787e-05
1.5468427e-05
6.6288756e-06
0.00010391321
0.00024215068
0.00031676923
0.00024214856
0.00010391038
0.00074081491
0.0013321881
0.0015416512
0.0013321881
0.00074080589
0.001966285
0.0018972078
0.0016816876
0.0018972319
0.0019663026
1.9806301e-07
4.0237572e-07
5.1571358e-07
4.0236902e-07
1.9805508e-07
5.7195769e-06
1.3551328e-05
1.8098898e-05
1.3551131e-05
5.719368e-06
9.1392154e-05
0.00021724789
0.0002858696
0.00021724571
9.1389518e-05
0.0006743254
0.0012490287
0.0014601591
0.0012490259
0.00067431474
0.0018940405
0.0019109962
0.0017227258
0.0019110138
0.0018940451
1.6985156e-07
3.4984725e-07
4.4989307e-07
3.4983965e-07
1.6984278e-07
4.9490059e-06
1.190936e-05
1.5969086e-05
1.1909132e-05
4.9487714e-06
8.0549675e-05
0.00019532162
0.00025850322
0.000195319
8.0546648e-05
0.00061410704
0.0011707789
0.0013820318
0.0011707755
0.00061409464
0.0018200022
0.0019158035
0.0017545014
0.0019158278
0.0018200117
1.4490134e-07
3.0271801e-07
3.9060327e-07
3.0271118e-07
1.4489377e-07
4.259566e-06
1.0415111e-05
1.4021347e-05
1.0414898e-05
4.2593585e-06
7.0609274e-05
0.00017472896
0.00023259664
0.00017472629
7.0606434e-05
0.00055621382
0.00109204
0.0013018616
0.0010920338
0.00055620003
0.0017399628
0.0019132923
0.001781166
0.0019133102
0.00173996
1.2410286e-07
2.6307871e-07
3.4060768e-07
2.6307172e-07
1.2409522e-07
3.6793933e-06
9.1442965e-06
1.2359511e-05
9.1440759e-06
3.6791818e-06
6.2069973e-05
0.00015675344
0.00020985365
0.0001567506
6.2067024e-05
0.00050435005
0.0010189612
0.0012261816
0.0010189541
0.00050433535
0.0016601838
0.0019023196
0.0017980358
0.0019023394
0.0016601817
1.0559859e-07
2.2724959e-07
2.9522512e-07
2.2724332e-07
1.05592e-07
3.1574349e-06
7.9798187e-06
1.0828845e-05
7.9796153e-06
3.1572482e-06
5.4207238e-05
0.00013978319
0.00018821052
0.00013978037
5.4204502e-05
0.00045444252
0.00094551983
0.0011487831
0.00094551065
0.00045442712
0.0015754134
0.0018842483
0.0018096187
0.0018842622
0.0015754013
9.0291071e-08
1.9735129e-07
2.5726054e-07
1.973453e-07
9.0284825e-08
2.7217672e-06
6.9978841e-06
9.5341241e-06
6.9976876e-06
2.721589e-06
4.7514852e-05
0.00012511745
0.00016940486
0.00012511466
4.7512197e-05
0.00041025284
0.0008783186
0.0010768539
0.00087830884
0.00041023742
0.0014928798
0.0018587279
0.0018114242
0.0018587403
0.0014928663
7.6582655e-08
1.7010307e-07
2.2250568e-07
1.7009778e-07
7.6577297e-08
2.3274067e-06
6.091088e-06
8.3320527e-06
6.0909098e-06
2.3272508e-06
4.132162e-05
0.00011118536
0.00015139715
0.00011118269
4.13192e-05
0.00036764409
0.00081074214
0.001003371
0.00081073116
0.00036762871
0.00140617
0.0018263849
0.0018078747
0.0018263925
0.0014061496
6.5347404e-08
1.4758488e-07
1.9371805e-07
1.4758005e-07
6.5342564e-08
2.0014325e-06
5.3342711e-06
7.3259239e-06
5.3341071e-06
2.0012906e-06
3.6106204e-05
9.9283831e-05
0.00013593596
9.9281307e-05
3.6103965e-05
0.00033039449
0.00074982489
0.00093617761
0.00074981377
0.00033037976
0.0013235315
0.0017880356
0.0017951154
0.0017880398
0.0013235096
5.5212385e-08
1.2686866e-07
1.6710829e-07
1.2686445e-07
5.5208273e-08
1.7043286e-06
4.6290624e-06
6.3831511e-06
4.6289164e-06
1.704206e-06
3.1251372e-05
8.7892078e-05
0.00012101834
8.7889728e-05
3.1249369e-05
0.00029436378
0.00068840846
0.00086744726
0.00068839694
0.00029434967
0.0012373304
0.0017431226
0.001776976
0.0017431231
0.0012373046
4.6997939e-08
1.0994824e-07
1.4533054e-07
1.0994454e-07
4.6994352e-08
1.4615626e-06
4.0476623e-06
5.6039222e-06
4.0475324e-06
1.4614549e-06
2.721316e-05
7.8289682e-05
0.00010838565
7.8287539e-05
2.7211371e-05
0.00026330407
0.00063392368
0.00080566763
0.00063391244
0.000263291
0.0011568453
0.0016940046
0.0017507224
0.0016940016
0.0011568187
3.9526963e-08
9.4211416e-08
1.2497376e-07
9.4208236e-08
3.952395e-08
1.2385631e-06
3.5001917e-06
4.8658557e-06
3.5000784e-06
1.2384713e-06
2.3428241e-05
6.9014157e-05
9.6084229e-05
6.9012215e-05
2.3426671e-05
0.00023312783
0.00057873491
0.00074224618
0.0005787239
0.00023311572
0.0010732155
0.0016385011
0.0017190344
0.0016384957
0.0010731874
3.3551688e-08
8.1537688e-08
1.0855288e-07
8.1534953e-08
3.3549129e-08
1.0588149e-06
3.0553531e-06
4.264892e-06
3.0552545e-06
1.0587364e-06
2.0324666e-05
6.1315358e-05
8.5832012e-05
6.1313628e-05
2.0323299e-05
0.00020751976
0.00053062294
0.00068628364
0.0005306125
0.00020750883
0.00099672657
0.0015808845
0.0016808201
0.0015808762
0.00099669868
2.8066157e-08
6.9599168e-08
9.2999905e-08
6.9596861e-08
2.8064034e-08
8.9221341e-07
2.6312516e-06
3.6883509e-06
2.6311672e-06
8.9214739e-07
1.7392127e-05
5.3795671e-05
7.5735199e-05
5.3794141e-05
1.7390949e-05
0.00018249397
0.00048154855
0.00062847476
0.00048153873
0.00018248412
0.000917327
0.0015169243
0.0016370101
0.0015169146
0.00091729958
2.3747803e-08
6.014535e-08
8.0669955e-08
6.0143399e-08
2.3746037e-08
7.6007341e-07
2.2925596e-06
3.2271921e-06
2.2924875e-06
7.6001806e-07
1.5027266e-05
4.7665494e-05
6.7475185e-05
4.7664155e-05
1.5026261e-05
0.00016163114
0.00043959137
0.00057849459
0.00043958226
0.00016162242
0.00084626194
0.0014531781
0.0015887239
0.0014531666
0.00084623546
1.9740006e-08
5.1104043e-08
6.8806485e-08
5.1102427e-08
1.973856e-08
6.363043e-07
1.9648416e-06
2.7779216e-06
1.964781e-06
6.3625847e-07
1.2771005e-05
4.1596364e-05
5.9226276e-05
4.1595206e-05
1.2770154e-05
0.00014108615
0.00039638043
0.00052638624
0.00039637211
0.00014107849
0.00077234824
0.0013829401
0.0015344909
0.001382928
0.00077232329
1.6644024e-08
4.4088977e-08
5.9596625e-08
4.4087625e-08
1.6642842e-08
5.3999722e-07
1.7084948e-06
2.4261547e-06
1.7084436e-06
5.3995943e-07
1.098678e-05
3.6752764e-05
5.2624215e-05
3.6751761e-05
1.0986066e-05
0.00012430564
0.00036024921
0.00048236445
0.00036024163
0.00012429897
0.00070773395
0.0013154504
0.0014782849
0.0013154375
0.0007077105
1.3733754e-08
3.7256281e-08
5.0564334e-08
3.7255181e-08
1.37328e-08
4.4866749e-07
1.4559631e-06
2.0769676e-06
1.4559209e-06
4.486367e-07
9.2646722e-06
3.187676e-05
4.5915797e-05
3.1875911e-05
9.2640783e-06
0.00010761957
0.00032255342
0.00043587145
0.00032254666
0.00010761383
0.00064019923
0.0012410646
0.0014154931
0.0012410515
0.00064017778
1.1537035e-08
3.2085926e-08
4.3730429e-08
3.2085012e-08
1.1536264e-08
3.7924204e-07
1.2633706e-06
1.8105945e-06
1.2633352e-06
3.7921694e-07
7.9347427e-06
2.808402e-05
4.0686585e-05
2.808329e-05
7.9342499e-06
9.4319165e-05
0.00029185153
0.00039764595
0.00029184546
9.4314235e-05
0.00058272935
0.0011721728
0.0013537137
0.0011721597
0.0005827096
9.4381993e-09
2.6934587e-08
3.6867139e-08
2.6933858e-08
9.4375881e-09
3.1234976e-07
1.0693582e-06
1.539904e-06
1.0693295e-06
3.1232965e-07
6.6314788e-06
2.4184637e-05
3.525494e-05
2.4184031e-05
6.6310765e-06
8.0912346e-05
0.00025925474
0.00035654744
0.00025924941
8.0908184e-05
0.00052206204
0.0010956346
0.0012842817
0.0010956216
0.00052204436
7.8989334e-09
2.3158024e-08
3.1840256e-08
2.315742e-08
7.8984437e-09
2.6295267e-07
9.2604683e-07
1.3400708e-06
9.2602285e-07
2.6293643e-07
5.6540418e-06
2.1247487e-05
3.1158287e-05
2.1246969e-05
5.653711e-06
7.0540615e-05
0.00023355557
0.0003238696
0.00023355083
7.0537079e-05
0.00047208406
0.0010276273
0.0012194376
0.0010276148
0.00047206806
6.3957946e-09
1.9282921e-08
2.6633757e-08
1.9282451e-08
6.3954152e-09
2.1432485e-07
7.7740592e-07
1.1307009e-06
7.7738695e-07
2.1431214e-07
4.675999e-06
1.8142274e-05
2.6777248e-05
1.8141852e-05
4.6757348e-06
5.9878246e-05
0.00020558926
0.00028783066
0.00020558517
5.9875322e-05
0.00041840724
0.00095068648
0.0011452004
0.00095067428
0.00041839317
5.334752e-09
1.6559191e-08
2.2981085e-08
1.6558804e-08
5.3344515e-09
1.7976925e-07
6.7217267e-07
9.8270175e-07
6.7215692e-07
1.7975908e-07
3.9703899e-06
1.5900958e-05
2.3613794e-05
1.5900601e-05
3.9701751e-06
5.1950307e-05
0.0001844739
0.00026041757
0.00018447032
5.1947855e-05
0.0003760466
0.0008858191
0.001079993
0.00088580759
0.0003760341
4.2645078e-09
1.3646698e-08
1.9032415e-08
1.3646406e-08
4.2642832e-09
1.4464085e-07
5.5844606e-07
8.2088038e-07
5.5843394e-07
1.4463315e-07
3.241527e-06
1.3434603e-05
2.008755e-05
1.3434318e-05
3.2413607e-06
4.3540921e-05
0.000160615
0.0002289897
0.00016061197
4.3538949e-05
0.00032911756
0.00080979374
0.0010024789
0.0008097828
0.00032910681
3.5508515e-09
1.1721555e-08
1.6429527e-08
1.172132e-08
3.5506774e-09
1.2106993e-07
4.8277188e-07
7.1346408e-07
4.8276199e-07
1.210639e-07
2.7453662e-06
1.1762345e-05
1.7697735e-05
1.1762108e-05
2.7452335e-06
3.7650895e-05
0.0001437237
0.00020660208
0.0001437211
3.7649272e-05
0.00029442047
0.00075044443
0.00093997183
0.0007504343
0.00029441113
2.7887305e-09
9.5232523e-09
1.3420728e-08
9.5230845e-09
2.7886084e-09
9.5696665e-08
3.9541388e-07
5.8784359e-07
3.9540661e-07
9.5692361e-08
2.2024542e-06
9.7973287e-06
1.4849686e-05
9.7971471e-06
2.2023565e-06
3.1025582e-05
0.00012334569
0.00017916124
0.00012334356
3.1024333e-05
0.0002535174
0.00067583347
0.00085992759
0.00067582425
0.00025350967
2.3315365e-09
8.2171859e-09
1.1637971e-08
8.2170563e-09
2.3314457e-09
8.0401614e-08
3.4324552e-07
5.1300398e-07
3.4323979e-07
8.0398358e-08
1.8710966e-06
8.6041977e-06
1.3121238e-05
8.6040502e-06
1.8710209e-06
2.6881248e-05
0.00011050007
0.00016177439
0.00011049827
2.6880244e-05
0.000226777
0.00062504404
0.00080414921
0.00062503566
0.00022677042
1.7743369e-09
6.517264e-09
9.2901821e-09
6.5171829e-09
1.774282e-09
6.1577904e-08
2.7448254e-07
4.1312176e-07
2.7447874e-07
6.1575866e-08
1.4556252e-06
6.9998073e-06
1.0765013e-05
6.9997028e-06
1.4555754e-06
2.1518718e-05
9.2670919e-05
0.0001372432
9.2669545e-05
2.1518013e-05
0.00019022553
0.00055047682
0.00072028932
0.00055046972
0.00019022046
1.5286741e-09
5.7487689e-09
8.2253383e-09
5.7487097e-09
1.528635e-09
5.3293904e-08
2.4342064e-07
3.6783843e-07
2.4341772e-07
5.3292401e-08
1.2716215e-06
6.2685585e-06
9.6856645e-06
6.2684735e-06
1.271583e-06
1.9098318e-05
8.4345586e-05
0.00012568745
8.434441e-05
1.9097746e-05
0.00017308645
0.00051386321
0.0006783385
0.00051385676
0.00017308207
1.0443148e-09
4.1795787e-09
6.0370354e-09
4.1795625e-09
1.0443041e-09
3.6674971e-08
1.7875239e-07
2.7288454e-07
1.7875124e-07
3.6674462e-08
8.9317764e-07
4.7046144e-06
7.3567569e-06
4.7045703e-06
8.9316148e-07
1.3943989e-05
6.5810584e-05
9.9630461e-05
6.580984e-05
1.3943694e-05
0.00013461554
0.00042675462
0.00057613403
0.00042674979
0.00013461276
0.0030750631
0.00083494285
0.00049851302
0.0008349448
0.0030750687
4.1397282e-07
1.6904913e-07
1.2922792e-07
1.6904926e-07
4.1397311e-07
3.7544285e-08
3.074094e-08
2.9307812e-08
3.0740927e-08
3.7544244e-08
2.5867052e-08
2.5080633e-08
2.4940792e-08
2.5080632e-08
2.5867047e-08
2.4705584e-08
2.4607631e-08
2.4596828e-08
2.4607631e-08
2.4705583e-08
0.036386652
0.035671575
0.034600471
0.035671549
0.036386626
0.00036857122
5.4453408e-05
2.7067314e-05
5.4452005e-05
0.00036856106
7.2332086e-07
1.6791734e-07
1.1518362e-07
1.6790116e-07
7.2323024e-07
4.9432572e-08
3.3102858e-08
3.0679176e-08
3.3102415e-08
4.9431141e-08
2.7693983e-08
2.5478931e-08
2.5213916e-08
2.547889e-08
2.7693921e-08
0.010715462
0.01216896
0.013118462
0.012168983
0.010715494
0.0037475031
0.001017986
0.00056739483
0.0010179918
0.0037475214
1.2815467e-05
1.7181556e-06
9.1462047e-07
1.7181907e-06
1.2815596e-05
1.7218642e-07
6.1568433e-08
4.9621235e-08
6.1571891e-08
1.7219391e-07
3.6797172e-08
2.7936185e-08
2.6962399e-08
2.7936361e-08
3.6802327e-08
0.005155048
0.0058997387
0.0060385734
0.0058997329
0.0051550264
0.0080576609
0.0041006171
0.0028256153
0.0041006711
0.0080577632
0.00010739974
1.3129042e-05
6.2388928e-06
1.3129556e-05
0.00010740547
7.3010385e-07
1.4755406e-07
1.0095531e-07
1.4755642e-07
7.3013847e-07
6.0645385e-08
3.3559802e-08
3.0833169e-08
3.3559103e-08
6.0646573e-08
0.0028002005
0.0037468085
0.0040351538
0.0037467956
0.0028001819
0.0084723921
0.0067872769
0.0056690554
0.0067872802
0.0084723702
0.00042197671
6.4325285e-05
3.0992775e-05
6.4326087e-05
0.0004219818
2.9785635e-06
4.068817e-07
2.3930335e-07
4.068761e-07
2.9785234e-06
1.1716809e-07
4.4948084e-08
3.8288259e-08
4.4946649e-08
1.1716134e-07
0.0016070343
0.002298211
0.0026083911
0.0022982023
0.0016070242
0.0071367199
0.0071194188
0.0067909819
0.0071194108
0.0071366952
0.0010115074
0.00020315071
0.00010470932
0.0002031533
0.001011518
1.0138479e-05
1.1253696e-06
5.9102279e-07
1.1253779e-06
1.0138588e-05