/*--------------------------------*- C++ -*----------------------------------*\
| =========                 |                                                 |
| \\      /  F ield         | OpenFOAM: The Open Source CFD Toolbox           |
|  \\    /   O peration     | Version:  2.3.x                                 |
|   \\  /    A nd           | Web:      www.OpenFOAM.org                      |
|    \\/     M anipulation  |                                                 |
\*---------------------------------------------------------------------------*/
FoamFile
{
    version     2.0;
    format      ascii;
    class       volScalarField;
    location    "0.027";
    object      k_tot;
}
// * * * * * * * * * * * * * * * * * * * * * * * * * * * * * * * * * * * * * //

dimensions      [0 0 -1 0 0 0 0];

internalField   nonuniform List<scalar> 
10000
(
187.94596
47.760559
28.127046
47.760508
187.94576
0.021183969
0.0084362051
0.0064067477
0.0084362008
0.02118396
0.0018059673
0.0014637074
0.0013919118
0.0014637082
0.0018059696
0.001221875
0.0011808036
0.0011734488
0.0011808037
0.0012218752
0.0011614729
0.0011558998
0.0011552631
0.0011558998
0.0011614729
19053.957
11328.526
8959.8762
11328.543
19053.999
34.792283
4.2847572
2.0012133
4.2848307
34.793022
0.040661306
0.0086967574
0.0058494947
0.0086974464
0.040665865
0.0024160897
0.0015830462
0.0014607463
0.0015830584
0.0024161352
0.0013119294
0.001199925
0.00118648
0.0011999255
0.001311927
41639.846
33641.027
30594.847
33640.969
41639.754
598.1014
127.01705
65.578009
127.01485
598.09087
0.90729963
0.10583872
0.053959025
0.10583314
0.90724415
0.0090831938
0.0030558955
0.0024304441
0.0030557203
0.009082567
0.0017743191
0.0013237345
0.0012744354
0.0013237236
0.0017741107
52306.926
45695.785
43372.701
45695.684
52306.722
2358.7174
781.61039
478.12273
781.59525
2358.6548
9.6733676
0.96623825
0.43300337
0.96617134
9.6724209
0.042690338
0.0077785949
0.0051946949
0.0077781618
0.042685394
0.0030250536
0.0016105993
0.0014710748
0.0016105823
0.0030248122
57747.222
51627.256
49506.486
51627.249
57747.163
4690.3977
2076.4657
1445.9609
2076.4569
4690.3573
48.237699
5.700634
2.5396031
5.7004773
48.235737
0.19553553
0.023123627
0.013109156
0.023123277
0.19552715
0.006123605
0.0022033796
0.0018557434
0.0022034163
0.0061236723
61692.216
55707.803
53643.661
55707.802
61692.154
7053.3828
3670.129
2776.8697
3670.1202
7053.3318
143.83724
21.56979
10.143262
21.569328
143.83271
0.74788547
0.069477492
0.034758129
0.069475238
0.74784382
0.013667771
0.0033304698
0.0025489552
0.0033303957
0.013667377
64801.906
58999.021
56988.653
58999.058
64801.905
9294.1216
5324.7869
4231.0286
5324.7946
9294.1046
310.76048
58.503405
29.459854
58.503095
310.75682
2.3001603
0.19503523
0.089309937
0.19503223
2.3001016
0.030984992
0.0053529064
0.0036985945
0.0053527695
0.030984452
67341.97
61746.233
59803.232
61746.319
67342.036
11395.566
6963.7857
5706.2097
6963.8283
11395.606
548.94473
125.55542
67.726591
125.55671
548.94742
5.8476685
0.49955088
0.21681004
0.4995538
5.8476891
0.068801675
0.0089339341
0.005574729
0.0089338279
0.06880189
69488.106
64098.844
62221.903
64098.941
69488.205
13375.67
8577.9193
7179.8376
8577.9838
13375.746
852.6686
229.27835
131.69225
229.28216
852.67693
12.778605
1.1708608
0.49575184
1.1708752
12.778667
0.14759447
0.015320752
0.0086697882
0.015320288
0.14759055
71353.157
66140.72
64319.297
66140.827
71353.292
15256.043
10156.842
8635.7076
10156.933
15256.176
1215.8653
372.86374
226.0398
372.87319
1215.8904
24.822584
2.5232908
1.0661582
2.523394
24.823425
0.30478343
0.026809152
0.013873814
0.026809651
0.30479126
72992.645
67950.083
66176.418
67950.169
72992.745
17038.545
11701.326
10073.278
11701.414
17038.66
1630.4264
557.10764
353.49386
557.12044
1630.4539
43.820755
5.0205392
2.1525305
5.0207407
43.821965
0.60192483
0.047334915
0.022666883
0.047335579
0.60193247
74455.823
69566.459
67834.862
69566.54
74455.917
18733.108
13201.878
11481.493
13201.978
18733.236
2089.2214
780.43055
514.44082
780.45065
2089.2635
71.560735
9.2753711
4.0801854
9.2759067
71.563929
1.1326594
0.083494177
0.037494586
0.083499595
1.1327315
75770.563
71017.978
69325.951
71018.024
75770.602
20340.425
14648.391
12850.129
14648.467
20340.503
2583.8642
1039.1174
707.26578
1039.1386
2583.9008
109.54404
15.998661
7.2675023
15.999461
109.54801
2.0279663
0.1457018
0.062216911
0.14571046
2.0280812
76962.62
72333.444
70678.988
72333.461
76962.622
21867.121
16041.512
14177.181
16041.57
21867.166
3107.6686
1329.9222
930.04256
1329.9454
3107.7052
158.98807
25.975826
12.222697
25.977122
158.99406
3.4604962
0.24989949
0.10287331
0.24991882
3.4607567
78052.717
73535.31
71916.721
73535.271
78052.641
23321.592
17382.891
15462.512
17382.891
23321.54
3655.6747
1649.4283
1180.5149
1649.442
3655.6819
220.8626
40.010126
19.516236
40.011382
220.86686
5.6462404
0.41952662
0.16860543
0.41954785
5.6465092
79056.571
74641.58
73057.229
74641.495
79056.437
24710.68
18676.021
16708.104
18675.965
24710.544
4223.6946
1994.8161
1456.7139
1994.8169
4223.6693
295.88719
58.900658
29.764157
58.901548
295.88835
8.8429401
0.68764511
0.27280272
0.68766568
8.8431703
79986.928
75666.332
74114.131
75666.187
79986.72
26040.611
19924.174
17915.209
19924.037
26040.355
4808.1777
2363.3495
1756.3725
2363.3243
4808.0931
384.53654
83.393048
43.587479
83.392185
384.5281
13.345311
1.0989782
0.43446178
1.0989612
13.34502
80853.257
76619.923
75097.899
76619.74
80853.004
27316.167
21129.859
19085.413
21129.655
27315.818
5405.9259
2752.413
2077.4164
2752.3587
5405.7825
487.03564
114.154
61.591631
114.15034
487.0146
19.474112
1.7112314
0.67934045
1.7111406
19.472912
81662.992
77510.474
76016.765
77510.26
81662.703
28541.218
22295.001
20219.832
22294.733
28540.781
6014.2194
3159.578
2417.8219
3159.4892
6014.0067
603.46264
151.77419
84.351075
151.76586
603.42263
27.575007
2.5973168
1.0416997
2.5970614
27.571988
82423.24
78346.131
76879.309
78345.921
82422.942
29719.971
23422.287
21320.54
23421.986
29719.493
6630.7514
3582.5781
2775.5961
3582.4598
6630.4914
733.69169
196.7282
112.37536
196.71453
733.63329
37.997898
3.8440069
1.5646083
3.8435163
37.992584
83139.394
79133.205
77691.903
79133.004
83139.114
30855.723
24514.573
22389.93
24514.26
30855.235
7253.6598
4019.7478
3149.2489
4019.6049
7253.3592
877.59
249.45879
146.1523
249.43876
877.51121
51.111237
5.5558433
2.3025095
5.5549922
51.102741
83816.371
79876.461
78459.227
79876.294
83816.146
31952.229
25573.269
23428.676
25572.985
31951.797
7881.489
4469.0583
3536.8686
4468.9079
7881.1873
1034.8205
310.24932
186.06605
310.22416
1034.7291
67.25909
7.8484557
3.3191552
7.8472027
67.247597
84458.23
80581.002
79186.69
80580.877
84458.065
33012.349
26601.363
24439.545
26601.126
33011.998
8513.1376
4929.4129
3937.3534
4929.2664
8512.8555
1205.1817
379.41907
232.5042
379.38991
1205.0832
86.810284
10.857315
4.6921079
10.855605
86.79588
85067.879
81250.037
79877.578
81249.961
85067.796
34037.685
27599.768
25423.174
27599.596
34037.463
9146.7878
5398.9772
4349.078
5398.8511
9146.5657
1388.0657
457.06841
285.72353
457.03852
1387.9738
110.0678
14.721599
6.5060741
14.719541
110.05207
85649.09
81887.619
80535.729
81887.591
85649.082
35032.008
28571.411
26381.578
28571.316
35031.915
9782.4833
5877.1846
4771.034
5877.0902
9782.3349
1583.3594
543.44018
346.00855
543.4125
1583.2831
137.38977
19.604319
8.8623007
19.602055
137.37422
86203.561
82495.838
81163.957
82495.856
86203.625
35995.823
29516.611
27316.012
29516.596
35995.866
10418.331
6362.2849
5202.1721
6362.2323
10418.277
1790.2753
638.4723
413.51644
638.45085
1790.2277
169.01831
25.660062
11.863708
25.657937
169.00578
86734.473
83077.927
81764.904
83077.981
86734.589
36932.737
30438.051
28227.792
30438.105
36932.892
11054.905
6854.0431
5641.467
6854.0339
11054.943
2008.8261
742.35102
488.45083
742.33866
2008.8119
205.30455
33.074666
15.634807
33.073034
205.2971
87242.664
83635.325
82340.208
83635.405
87242.823
37842.354
31335.855
29117.073
31335.966
37842.61
11690.053
7350.957
6087.5735
7350.9911
11690.187
2237.9554
854.91161
570.7917
854.91092
2237.983
246.39619
42.009756
20.290276
42.009081
246.39679
87730.909
84170.847
82892.963
84170.937
87731.088
38728.091
32212.705
29986.747
32212.849
38728.41
12324.687
7853.1162
6540.6836
7853.1867
12324.897
2477.774
976.3108
660.81991
976.32318
2477.8427
292.62516
52.668639
25.978427
52.669377
292.63557
88199.936
84685.464
83423.794
84685.562
88200.121
39589.844
33068.568
30835.946
33068.737
39590.198
12957.243
8359.2363
6999.0526
8359.3378
12957.508
2727.3909
1106.3523
758.34763
1106.3768
2727.4941
344.1057
65.218173
32.819966
65.220521
344.12621
88652
85181.258
83935.527
85181.353
88652.172
40430.616
33905.436
31667.78
33905.614
40430.969
13588.723
8869.1815
7463.352
8869.3042
13589.018
2986.9401
1245.0218
863.72517
1245.0586
2987.0716
401.14543
79.86345
40.987218
79.867851
401.17636
89087.414
85658.711
84428.154
85658.795
89087.563
41249.809
34722.673
32480.621
34722.843
41250.13
14217.416
9381.4972
7931.4311
9381.6263
14217.709
3255.4301
1391.9799
976.5236
1392.0237
3255.5755
463.78728
96.760009
50.595203
96.766008
463.82565
89508.282
86120.445
84904.567
86120.514
89508.401
42050.431
35523.627
33278.059
35523.778
42050.705
14844.586
9897.2269
8404.4451
9897.3543
14844.862
3533.1075
1547.5334
1097.1502
1547.5832
3533.2612
532.31849
116.14165
61.836508
116.1496
532.36397
89914.579
86566.244
85364.421
86566.292
89914.663
42831.527
36306.859
34058.324
36306.975
42831.734
15468.493
10414.541
8880.3878
10414.651
15468.722
3818.9487
1711.1787
1225.1738
1711.2258
3819.0903
606.74923
138.15871
74.830515
138.16712
606.79512
90308.246
86998.394
85810.245
86998.426
90308.303
43596.04
37075.488
34824.765
37075.575
43596.196
16090.526
10934.58
9360.4673
10934.675
16090.719
4113.2141
1883.1742
1360.9876
1883.2214
4113.3468
687.31075
163.02488
89.781837
163.0346
687.35912
90688.971
87416.343
86241.356
87416.359
90688.993
44342.623
37827.644
35575.302
37827.696
44342.702
16708.828
11455.394
9842.6884
11455.46
16708.946
4414.8457
2062.9722
1504.1388
2063.0089
4414.9382
773.9595
190.89406
106.82228
190.90242
773.9978
91058.7
87822.495
86660.166
87822.504
91058.709
45074.343
38566.733
36313.143
38566.769
45074.388
17324.945
11978.372
10328.166
11978.426
17325.031
4724.1216
2250.8519
1654.8496
2250.8863
4724.2012
866.87231
221.95969
126.11781
221.96855
866.90986
91417.016
88216.274
87066.103
88216.271
91417.003
45789.899
39291.172
37036.672
39291.177
45789.885
17937.369
12501.998
10815.481
12502.02
17937.385
5040.3171
2446.4605
1812.9233
2446.4789
5040.3482
966.13706
256.43989
147.86972
256.44541
966.15643
91765.664
88599.602
87461.279
88599.6
91765.657
46492.023
40003.596
37748.687
40003.601
46492.015
18547.336
13027.028
11305.376
13027.047
18547.351
5363.3889
2649.6674
1978.2925
2649.6856
5363.4198
1071.6864
294.39366
172.16287
294.39984
1071.7076
92104.266
88971.921
87845.111
88971.913
92104.247
47179.757
40702.742
38447.918
40702.724
47179.711
19154.008
13552.609
11797.075
13552.598
19153.967
5693.209
2860.5804
2151.1508
2860.5807
5693.1927
1183.9102
336.19848
199.32414
336.19984
1183.9094
92434.17
89334.8
88219.279
89334.802
92434.174
47854.954
41390.452
39136.255
41390.453
47854.951
19757.637
14078.653
12290.421
14078.656
19757.633
6028.9096
3078.44
2330.8331
3078.4461
6028.9144
1302.2512
381.6707
229.25476
381.67382
1302.2594
92755.358
89688.125
88583.61
89688.124
92755.356
48517.693
42066.684
39813.577
42066.671
48517.67
20358.796
14605.75
12785.995
14605.731
20358.751
6371.5376
3304.2767
2518.3366
3304.2662
6371.502
1427.7226
431.51916
262.53378
431.51683
1427.7085
93068.556
90032.802
88939.09
90032.818
93068.588
49168.411
42731.837
40480.288
42731.859
49168.459
20956.098
15132.249
13282.1
15132.259
20956.123
6718.8589
3536.2144
2711.9859
3536.218
6718.868
1558.9487
485.11201
298.73033
485.11361
1558.9537
93374.28
90369.302
89286.154
90369.316
93374.308
49808.654
43387.453
41137.898
43387.465
49808.687
21552.09
15660.696
13781.248
15660.69
21552.085
7073.6442
3776.6687
2914.0235
3776.6587
7073.6206
1697.9357
543.713
338.85286
543.70937
1697.9204
93672.465
90697.65
89624.876
90697.683
93672.53
50436.954
44031.898
41784.733
44031.954
50437.072
22143.081
16187.171
14279.493
16187.205
22143.168
7431.6647
4022.1086
3121.262
4022.1207
7431.7053
1842.0753
605.98193
381.92643
605.98491
1842.0896
93964.425
91019.194
89956.586
91019.224
93964.483
51056.957
44668.969
42424.593
44669.016
51057.056
22734.357
16716.948
14782.049
16716.969
22734.416
7798.1071
4276.9478
3337.7632
4276.9491
7798.1194
1994.8425
674.04363
429.63633
674.04207
1994.8388
94249.072
91332.824
90280.18
91332.874
94249.167
51664.691
45294.353
43053.064
45294.446
51664.88
23319.131
17243.036
15281.935
17243.104
23319.291
8166.0049
4535.3454
3558.2172
4535.3744
8166.0931
2151.8745
745.5037
480.1799
745.51124
2151.9086
94528.772
91641.056
90598.216
91641.1
94528.854
52266.542
45914.806
43677.009
45914.886
52266.701
23906.253
17774.289
15787.928
17774.344
23906.381
8543.7633
4804.4345
3789.1873
4804.4542
8543.8237
2318.7044
823.74357
536.24601
823.74742
2318.7223
94801.143
91941.353
90908.114
91941.415
94801.258
52855.327
46522.582
44288.504
46522.706
52855.569
24484.916
18299.701
16289.058
18299.802
24485.142
8920.789
5075.2677
4022.4881
5075.3172
8920.9281
2488.568
904.86778
594.83062
904.88227
2488.6277
95069.895
92237.718
91213.976
92237.772
95069.991
53440.908
47128.192
44898.271
47128.298
53441.11
25068.5
18832.687
16798.65
18832.773
25068.685
9309.6566
5358.5561
4268.0025
5358.5969
9309.7658
2669.7735
994.01804
660.04977
994.02973
2669.8177
95331.072
92525.866
91511.41
92525.935
95331.197
54012.145
47719.617
45494.006
47719.761
54012.419
25641.149
19357.154
17300.668
19357.282
25641.422
9695.1164
5641.307
4513.7749
5641.3758
9695.2985
2852.3685
1085.2363
727.22018
1085.2588
2852.4536
95590.049
92811.647
91806.432
92811.705
95590.15
54583.203
48312.026
46091.218
48312.147
54583.427
26221.878
19892.228
17814.137
19892.337
26222.103
10095.023
5938.838
4773.9856
5938.8985
10095.173
3048.3038
1186.052
802.4217
1186.0725
3048.3744
95840.972
93088.674
92092.468
93088.744
95841.097
55138.119
48888.204
46672.26
48888.356
55138.402
26788.598
20415.513
18316.721
20415.656
26788.895
10488.265
6232.9998
5031.8433
6233.0836
10488.476
3243.4871
1287.7441
878.68723
1287.7741
3243.5933
96091.236
93365.039
92377.855
93365.096
96091.335
55696.304
49468.994
47258.466
49469.122
55696.533
27367.238
20953.157
18834.467
20953.281
27367.483
10899.283
6544.9247
5306.9887
6545.0006
10899.462
3454.5595
1401.0096
964.73722
1401.0387
3454.6527
96332.716
93631.83
92653.403
93631.897
96332.834
56235.958
50030.873
47825.714
50031.022
56236.232
27928.074
21475.005
19337.278
21475.153
27928.374
11299.658
6849.9621
5576.5094
6850.0548
11299.883
3662.1285
1513.4907
1050.5599
1513.5269
3662.2489
96575.24
93899.839
92930.247
93899.894
96575.332
56782.842
50601.557
48402.397
50601.682
56783.063
28505.469
22015.805
19859.81
22015.935
28505.719
11721.998
7176.5371
5866.9228
7176.6231
11722.192
3888.8133
1640.0322
1148.3713
1640.0685
3888.923
96807.972
94157.148
93196.082
94157.208
96808.078
57308.123
51149.912
48956.586
51150.052
57308.375
29060.392
22535.904
20362.461
22536.049
29060.679
12128.828
7491.8627
6147.624
7491.9586
12129.053
4108.4884
1763.5402
1244.1494
1763.5805
4108.6157
97043.66
94417.787
93465.398
94417.837
97043.743
57845.238
51711.974
49525.213
51712.092
57845.441
29637.486
23080.572
20890.426
23080.701
29637.727
12562.858
7833.4762
6453.7552
7833.5667
12563.056
4351.3532
1904.2449
1354.6964
1904.2861
4351.4725
97268.226
94666.241
93722.161
94666.294
97268.318
58356.859
52247.408
50066.892
52247.533
58357.082
30186.36
23598.518
21392.43
23598.653
30186.623
12975.395
8158.4165
6745.0556
8158.5109
12975.61
4582.753
2038.9184
1460.7449
2038.9609
4582.8808
97497.934
94920.441
93984.905
94920.484
97498.005
58885.719
52802.336
50628.933
52802.442
58885.899
30764.217
24147.916
21926.632
24148.038
30764.44
13421.663
8515.6163
7067.5057
8515.7064
13421.856
4842.486
2194.7576
1585.0839
2194.8013
4842.6084
97714.81
95160.551
94233.119
95160.596
97714.886
59384.209
53325.265
51158.476
53325.373
59384.399
31306.768
24663.18
22427.388
24663.302
31307
13839.052
8849.3795
7368.704
8849.469
13839.25
5085.098
2340.6087
1701.6017
2340.6516
5085.2216
97939.356
95409.208
94490.217
95409.245
97939.415
59906.346
53874.59
51715.464
53874.683
59906.501
31886.605
25218.361
22968.835
25218.472
31886.805
14298.321
9222.9081
7708.2561
9222.9945
14298.503
5362.541
2512.6627
1840.8883
2512.7069
5362.6614
98148.908
95641.364
94730.28
95641.4
98148.969
60392.028
54385.223
52233.033
54385.313
60392.185
32422.38
25730.243
23467.57
25730.349
32422.578
14719.554
9564.5393
8018.4784
9564.622
14719.731
5615.6853
2669.5442
1967.9288
2669.5864
5615.8016
98369.093
95885.354
94982.639
95885.384
98369.141
60909.023
54930.549
52786.584
54930.626
60909.152
33005.606
26292.483
24017.503
26292.58
33005.78
15192.842
9955.3748
8376.1344
9955.4548
15193.007
5911.8743
2859.0361
2123.4505
2859.0793
5911.989
98571.567
96109.812
95214.809
96109.839
98571.614
61381.975
55428.834
53292.078
55428.906
61382.099
33533.903
26800.037
24513.199
26800.128
33534.067
15616.686
10303.695
8694.2801
10303.769
15616.841
6174.6523
3026.6014
2260.8841
3026.6422
6174.7596
98788.193
96350.017
95463.34
96350.04
98788.229
61895.505
55971.89
53843.939
55971.952
61895.607
34122.178
27370.9
25073.15
27370.983
34122.323
16105.331
10713.114
9071.3226
10713.186
16105.476
6490.8754
3234.9445
2434.0997
3234.9856
6490.9817
98983.699
96566.88
95687.716
96566.901
98983.733
62355.496
56457.449
54336.915
56457.504
62355.589
34641.947
27872.835
25564.435
27872.909
34642.077
16530.234
11066.635
9395.9841
11066.701
16530.365
6762.1024
3412.5941
2581.563
3412.6331
6762.1996
99197.602
96804.224
95933.371
96804.239
99197.629
62867.412
57000.174
54889.049
57000.22
62867.489
35237.279
28454.271
26136.325
28454.336
35237.393
17035.983
11496.297
9794.057
11496.358
17036.105
7099.9733
3641.4467
2774.1522
3641.4849
7100.0688
99386.087
97013.416
96149.861
97013.429
99386.109
63313.8
57472.189
55368.613
57472.228
63313.865
35746.96
28948.782
26621.314
28948.84
35747.058
17459.918
11853.087
10123.399
11853.144
17460.025
7378.0747
3828.2538
2930.9828
3828.2904
7378.1604
99598.203
97248.934
96393.707
97248.942
99598.218
63826.293
58016.907
55923.373
58016.936
63826.342
36351.894
29543.31
27207.637
29543.357
36351.977
17985.087
12305.161
10544.628
12305.211
17985.184
7739.6351
4079.5937
3144.9107
4079.6279
7739.7169
99779.39
97450.132
96601.972
97450.137
99779.4
64257.855
58473.923
56387.988
58473.946
64257.89
36849.176
30027.824
27683.691
30027.865
36849.241
18405.33
12662.665
10876.217
12662.711
18405.41
8022.5065
4274.2071
3310.0603
4274.24
8022.5782
99990.854
97685.076
96845.305
97685.075
99990.857
64773.714
59023.607
56948.414
59023.616
64773.732
37467.116
30638.832
28287.814
30638.86
37467.162
18953.049
13140.04
11323.396
13140.076
18953.115
8410.373
4550.4344
3547.6671
4550.463
8410.4369
100164.14
97877.586
97044.621
97877.583
100164.13
65188.324
59463.185
57395.53
59463.19
65188.327
37948.521
31109.615
28751.135
31109.638
37948.551
19365.864
13494.826
11653.981
13494.858
19365.915
8695.2028
4750.9603
3719.5998
4750.9869
8695.2563
100376.48
98113.644
97289.174
98113.632
100376.46
65711.461
60022.035
57965.896
60022.021
65711.439
38584.323
31741.939
29377.827
31741.945
38584.327
19940.474
14001.39
12130.819
14001.411
19940.505
9112.7518
5055.0052
3983.6908
5055.0261
9112.793
100540.67
98296.131
97478.153
98296.115
100540.64
66105.395
60440.017
58391.198
60439.995
66105.355
39044.433
32193.387
29822.807
32193.387
39044.417
20340.628
14348.819
12456.058
14348.836
20340.644
9395.8055
5258.8787
4160.2745
5258.8964
9395.8354
100756.21
98535.886
97726.587
98535.857
100756.17
66641.974
61014.674
58978.274
61014.628
66641.897
39705.558
32854.287
30479.156
32854.266
39705.505
20948.26
14889.796
12967.43
14889.799
20948.248
9847.3649
5594.288
4454.1835
5594.2991
9847.378
100908.82
98705.592
97902.383
98705.555
100908.77
67007.955
61403.111
59373.607
61403.05
67007.85
40135.251
33277.527
30897.135
33277.495
40135.17
21328.259
15223.619
13281.583
15223.616
21328.228
10123.732
5798.1464
4632.5871
5798.1531
10123.732
101132.26
98954.2
98160.012
98954.146
101132.18
67570.285
62006.624
59990.622
62006.527
67570.124
40834.453
33978.57
31594.131
33978.508
40834.315
21977.593
15805.805
13833.65
15805.786
21977.523
10614.681
6169.0637
4960.1408
6169.0631
10614.659
101266.06
99102.942
98314.072
99102.875
101265.97
67889.578
62346.156
60336.579
62346.034
67889.376
41217.14
34359.18
31971.57
34359.097
41216.961
22326.961
16117.964
14129.464
16117.934
22326.861
10878.048
6368.6441
5136.7534
6368.639
10878.011
101549.62
99418.869
98641.659
99418.773
101549.48
68613.91
63124.158
61132.099
63123.971
68613.617
42121.432
35267.327
32875.187
35267.186
42121.154
23174.605
16883.473
14857.819
16883.41
23174.435
11531.04
6870.9976
5583.9789
6870.9799
11530.964
187.94579
47.760554
28.127122
47.760675
187.94617
0.021183963
0.0084362016
0.0064067435
0.0084362068
0.021183976
0.0018059696
0.0014637078
0.0013919107
0.0014637063
0.0018059662
0.0012218752
0.0011808036
0.0011734486
0.0011808034
0.0012218747
0.0011614729
0.0011558998
0.001155263
0.0011558998
0.0011614728
19053.997
11328.535
8959.8522
11328.503
19053.933
34.793014
4.2848118
2.001167
4.2846971
34.792005
0.040665798
0.0086973497
0.005849261
0.0086964839
0.040660532
0.0024161343
0.0015830537
0.0014607374
0.0015830329
0.0024160639
0.0013119271
0.0011999248
0.0011864789
0.001199923
0.0013119258
41639.752
33640.935
30594.867
33640.95
41639.767
598.09039
127.01361
65.577808
127.01413
598.09157
0.907244
0.10583154
0.053958789
0.10583382
0.90725359
0.0090825975
0.0030557595
0.0024305215
0.0030559367
0.0090830087
0.0017741241
0.0013237227
0.0012744345
0.0013237311
0.0017743807
52306.723
45695.657
43372.667
45695.764
52306.889
2358.654
781.58998
478.11825
781.60207
2358.6983
9.6724165
0.96614733
0.43298717
0.96618695
9.6729633
0.042685259
0.007777902
0.0051944165
0.0077780281
0.042687355
0.0030247858
0.0016105317
0.0014709933
0.0016104976
0.0030248439
57747.166
51627.219
49506.439
51627.241
57747.195
4690.3577
2076.4469
1445.9492
2076.4558
4690.3783
48.235804
5.7003612
2.5395194
5.7004411
48.236538
0.19552778
0.023122671
0.013108638
0.023122342
0.19552516
0.0061236902
0.0022033965
0.0018557216
0.0022033242
0.0061233217
61692.162
55707.758
53643.619
55707.771
61692.179
7053.3359
3670.1027
2776.8519
3670.1132
7053.3569
143.83297
21.568947
10.142971
21.569253
143.83494
0.74784695
0.069473372
0.034756642
0.069473901
0.74785563
0.013667444
0.003330368
0.0025489351
0.0033304003
0.013667311
64801.921
58999.007
56988.614
58998.989
64801.87
9294.1146
5324.7643
4230.9993
5324.7583
9294.082
310.75763
58.501857
29.458854
58.50172
310.75472
2.3001139
0.19502399
0.08930353
0.19501989
2.3000323
0.030984657
0.0053526059
0.0036984134
0.0053525146
0.030982497
67342.065
61746.308
59803.26
61746.285
67342.008
11395.629
6963.8123
5706.2073
6963.7999
11395.58
548.95008
125.55533
67.725667
125.55472
548.9431
5.847743
0.49954024
0.21680045
0.49953202
5.8475394
0.068802739
0.0089336757
0.0055745946
0.0089336562
0.068799119
69488.235
64098.953
62221.956
64098.916
69488.166
13375.774
8577.9791
7179.8526
8577.954
13375.709
852.68144
229.28056
131.6915
229.27868
852.66968
12.778789
1.1708444
0.49573148
1.1708248
12.778385
0.14759225
0.015319834
0.0086693754
0.015319935
0.147587
71353.318
66140.866
64319.401
66140.831
71353.247
15256.205
10156.951
8635.7652
10156.919
15256.125
1215.8967
372.8732
226.04222
372.86949
1215.8778
24.823668
2.5233617
1.0661517
2.5233108
24.822803
0.30479481
0.026809094
0.01387354
0.026808955
0.30478195
72992.767
67950.22
66176.551
67950.196
72992.724
17038.686
11701.448
10073.371
11701.422
17038.63
1630.4611
557.12277
353.50115
557.11868
1630.4447
43.822332
5.0207183
2.1525652
5.0206504
43.821372
0.60193735
0.047334367
0.022666331
0.047334375
0.60192376
74455.932
69566.609
67835.037
69566.592
74455.903
18733.258
13202.034
11481.64
13202.011
18733.213
2089.2708
780.45811
514.45865
780.45321
2089.2545
71.564428
9.2760128
4.0804184
9.2758862
71.5631
1.132739
0.083498896
0.037495341
0.08349764
1.1327075
75770.605
71018.096
69326.139
71018.095
75770.602
20340.512
14648.537
12850.312
14648.529
20340.498
2583.9056
1039.1512
707.29484
1039.1482
2583.8967
109.54844
15.999774
7.2680607
15.999654
109.54737
2.0280852
0.1457098
0.062218701
0.14570773
2.028046
76962.613
72333.533
70679.179
72333.54
76962.624
21867.161
16041.651
14177.397
16041.655
21867.169
3107.7061
1329.9652
930.08713
1329.9648
3107.7049
158.99425
25.977925
12.223956
25.977845
158.99365
3.4607542
0.24992326
0.10288105
0.24991933
3.4607025
78052.62
73535.325
71916.871
73535.342
78052.645
23321.518
17382.963
15462.712
17382.982
23321.549
3655.6763
1649.4645
1180.5675
1649.4687
3655.6859
220.86633
40.012666
19.518258
40.012801
220.86703
5.646477
0.41955845
0.16861975
0.41955543
5.6464553
79056.408
74641.534
73057.338
74641.551
79056.437
24710.51
18676.024
16708.278
18676.05
24710.551
4223.6577
1994.8406
1456.7713
1994.8488
4223.6754
295.88691
58.903446
29.767136
58.903906
295.88924
8.8430945
0.68769142
0.27283086
0.68769216
8.8431469
79986.686
75666.207
74114.178
75666.227
79986.716
26040.311
19924.071
17915.318
19924.106
26040.359
4808.075
2363.3433
1756.4217
2363.3564
4808.1009
384.52531
83.394291
43.590917
83.395283
384.52992
13.344858
1.0989997
0.4344999
1.0990119
13.345083
80852.97
76619.748
75097.905
76619.762
80852.993
27315.771
21129.67
19085.462
21129.7
27315.815
5405.7605
2752.372
2077.4516
2752.3868
5405.7895
487.01052
114.15242
61.59505
114.15393
487.01715
19.472642
1.7111943
0.67938768
1.7112239
19.473105
81662.672
77510.264
76016.737
77510.268
81662.685
28540.736
22294.731
20219.818
22294.751
28540.767
6013.983
3159.4932
2417.8335
3159.5068
6014.0103
603.41737
151.76713
84.353187
151.76902
603.42533
27.571574
2.5971059
1.0417284
2.5971576
27.57231
82422.927
78345.929
76879.271
78345.92
82422.93
29719.462
23421.986
21320.491
23421.99
29719.476
6630.4696
3582.4587
2775.5871
3582.4689
6630.4885
733.62761
196.71487
112.37554
196.71683
733.63535
37.992057
3.8435383
1.5645971
3.8436085
37.993005
83139.113
79133.029
77691.876
79133.009
83139.1
30855.222
24514.27
22389.864
24514.255
30855.215
7253.3443
4019.6003
3149.2202
4019.6032
7253.353
877.50607
249.43774
146.14946
249.4392
877.51226
51.10214
5.5549431
2.3023997
5.5550166
51.103152
83816.162
79876.348
78459.242
79876.32
83816.137
31951.81
25573.027
23428.643
25572.994
31951.78
7881.1847
4468.9103
3536.836
4468.904
7881.1794
1034.7262
310.22285
186.06087
310.22322
1034.7291
67.247102
7.8470886
3.318928
7.8471376
67.247933
84458.099
80580.963
79186.754
80580.93
84458.066
33012.039
26601.208
24439.566
26601.163
33011.99
8512.8691
4929.2818
3937.328
4929.2665
8512.8487
1205.084
379.38915
232.49735
379.38794
1205.0822
86.795681
10.855418
4.6917264
10.855403
86.796024
85067.844
81250.087
79877.705
81250.052
85067.809
34037.529
27599.74
25423.281
27599.687
34037.47
9146.5971
5398.8919
4349.0797
5398.8691
9146.5648
1387.9798
457.04084
285.71787
457.03781
1387.973
110.05247
14.719396
6.5056078
14.719277
110.0521
85649.142
81887.75
80535.913
81887.715
85649.109
35032.005
28571.516
26381.776
28571.46
35031.944
9782.3854
5877.161
4771.0742
5877.1326
9782.3457
1583.2954
543.41986
346.00668
543.41496
1583.2841
137.37553
19.602082
8.8618409
19.601823
137.37427
86203.694
82496.044
81164.195
82496.014
86203.666
35995.976
29516.853
27316.308
29516.8
35995.921
10418.346
6362.3399
5202.2653
6362.3088
10418.304
1790.2468
638.46632
413.52258
638.45977
1790.2325
169.00828
25.658431
11.863505
25.658007
169.0062
86734.663
83078.185
81765.177
83078.161
86734.642
36933.018
30438.406
28228.168
30438.36
36932.972
11055.028
6854.1772
5641.6133
6854.1464
11054.988
2008.8388
742.36378
488.46778
742.35622
2008.8229
205.30117
33.074268
15.635142
33.073697
205.29842
87242.896
83635.618
82340.502
83635.601
87242.883
37842.74
31336.302
29117.512
31336.267
37842.708
11690.28
7351.1696
6087.7737
7351.1416
11690.247
2238.0156
854.94788
570.82238
854.93963
2238.0002
246.40242
42.011474
20.291528
42.010752
246.39929
87731.157
84171.146
82893.259
84171.136
87731.152
38728.538
32213.199
29987.222
32213.175
38728.52
12324.993
7853.3897
6540.9287
7853.367
12324.971
2477.8789
976.37068
660.86573
976.36316
2477.867
292.6426
52.673155
25.981003
52.672416
292.63984
88200.182
84685.759
83424.078
84685.75
88200.186
39590.316
33069.087
30836.431
33069.065
39590.315
12957.602
8359.5584
6999.3292
8359.5395
12957.592
2727.5337
1106.4355
758.40737
1106.4284
2727.5257
344.13467
65.226024
32.824081
65.225216
344.13241
88652.224
85181.525
83935.783
85181.525
88652.236
40431.073
33905.94
31668.247
33905.933
40431.09
13589.106
8869.5281
7463.6469
8869.5186
13589.112
2987.112
1245.125
863.79844
1245.1205
2987.1107
401.18588
79.875132
40.993284
79.874559
401.18527
89087.605
85658.937
84428.371
85658.943
89087.622
41250.219
34723.128
32481.043
34723.133
41250.249
14217.789
9381.8395
7931.7224
9381.837
14217.805
3255.6147
1392.0938
976.60457
1392.091
3255.6178
463.83582
96.774763
50.602861
96.774252
463.83595
89508.433
86120.625
84904.742
86120.638
89508.456
42050.778
35524.017
33278.424
35524.037
42050.822
14844.931
9897.5514
8404.7239
9897.5617
14844.964
3533.297
1547.6558
1097.2381
1547.6571
3533.3099
532.37416
116.15993
61.846195
116.15998
532.37766
89914.684
86566.372
85364.55
86566.386
89914.709
42831.788
36307.16
34058.614
36307.183
42831.834
15468.778
10414.818
8880.6303
10414.831
15468.814
3819.1203
1711.2939
1225.2583
1711.2966
3819.1349
606.80443
138.17771
74.840832
138.17794
606.80789
90308.315
86998.48
85810.335
86998.495
90308.343
43596.23
37075.714
34824.989
37075.743
43596.288
16090.759
10934.815
9360.6783
10934.835
16090.812
4113.3716
1883.2848
1361.0705
1883.2919
4113.3995
687.36764
163.04599
89.793633
163.0472
687.37667
90688.998
87416.386
86241.404
87416.397
90689.022
44342.722
37827.781
35575.444
37827.801
44342.772
16708.976
11455.561