/*--------------------------------*- C++ -*----------------------------------*\
| =========                 |                                                 |
| \\      /  F ield         | OpenFOAM: The Open Source CFD Toolbox           |
|  \\    /   O peration     | Version:  2.3.x                                 |
|   \\  /    A nd           | Web:      www.OpenFOAM.org                      |
|    \\/     M anipulation  |                                                 |
\*---------------------------------------------------------------------------*/
FoamFile
{
    version     2.0;
    format      ascii;
    class       surfaceScalarField;
    location    "0.027";
    object      phi;
}
// * * * * * * * * * * * * * * * * * * * * * * * * * * * * * * * * * * * * * //

dimensions      [1 0 -1 0 0 0 0];

internalField   nonuniform List<scalar> 
29075
(
2.919526e-09
1.3645399e-07
1.3369096e-07
-5.6627368e-15
1.3987783e-09
1.3870809e-07
1.7473006e-07
-1.3987535e-09
1.3782275e-07
1.9100139e-07
-2.9195004e-09
1.3870805e-07
1.7473011e-07
1.3645395e-07
1.3369102e-07
7.8244395e-15
5.5467567e-09
1.3417468e-07
2.3345655e-07
1.4720102e-14
2.9459696e-09
1.2767491e-07
2.8824145e-07
-2.9459757e-09
1.2347377e-07
3.0846323e-07
-5.5467534e-09
1.2767483e-07
2.8824146e-07
1.3417455e-07
2.3345662e-07
1.960021e-14
5.4248975e-09
9.2464482e-08
2.3666963e-07
4.8486624e-14
2.9072799e-09
8.3680303e-08
2.8381077e-07
-2.9073308e-09
7.9871453e-08
2.9983599e-07
-5.4249303e-09
8.3680483e-08
2.838105e-07
9.2464665e-08
2.3666931e-07
2.3066149e-14
3.8846387e-09
5.493861e-08
1.9768641e-07
4.4639831e-14
2.2107163e-09
4.748344e-08
2.3786092e-07
-2.2107307e-09
4.5593376e-08
2.5131587e-07
-3.8846407e-09
4.7483517e-08
2.3786101e-07
5.4938705e-08
1.9768652e-07
2.409113e-14
3.0670795e-09
1.4977856e-07
3.9506035e-14
2.9799217e-08
2.016804e-09
1.8754367e-07
2.3672022e-08
-2.0167877e-09
2.0035891e-07
2.4081944e-08
-3.0670503e-09
1.8754372e-07
2.3672031e-08
1.4977867e-07
2.706019e-14
2.9799247e-08
-5.7673408e-10
5.1132261e-08
8.3135475e-08
-3.9690161e-14
-3.5371376e-10
6.1993781e-08
1.1251326e-07
3.5382398e-10
6.5280814e-08
1.2501304e-07
5.7681275e-10
6.1993893e-08
1.1251323e-07
5.1132411e-08
8.3135417e-08
6.9970432e-15
1.5561416e-09
9.7235398e-08
1.8579732e-07
-5.0815788e-14
1.2552909e-09
1.0371607e-07
2.4682001e-07
-1.2551856e-09
1.0541677e-07
2.7083775e-07
-1.5560476e-09
1.0371618e-07
2.4682004e-07
9.7235652e-08
1.8579732e-07
1.9557755e-14
3.3588968e-09
9.4751461e-08
2.3579472e-07
-5.2492646e-14
2.338228e-09
9.1098556e-08
2.9744895e-07
-2.3380674e-09
9.0535851e-08
3.193932e-07
-3.3587594e-09
9.1098477e-08
2.9744889e-07
9.475152e-08
2.3579466e-07
3.1000433e-14
4.0622434e-09
6.8304285e-08
2.2007143e-07
-8.0071517e-14
2.687709e-09
6.0980772e-08
2.6935324e-07
-2.6874847e-09
6.095829e-08
2.8626862e-07
-4.0620327e-09
6.098061e-08
2.6935343e-07
6.8304302e-08
2.2007167e-07
3.3014357e-14
3.7550948e-09
1.7188708e-07
-1.4785763e-13
4.2440815e-08
2.6687646e-09
2.160106e-07
3.3600173e-08
-2.6684989e-09
2.3123267e-07
3.5421802e-08
-3.7547895e-09
2.1601054e-07
3.3600082e-08
1.7188738e-07
3.0880415e-14
4.2440765e-08
-6.3476858e-10
1.8406182e-08
6.5364111e-08
-4.8804415e-14
-4.5956704e-10
2.4613185e-08
8.7724877e-08
4.597048e-10
2.6811945e-08
9.728182e-08
6.3486348e-10
2.461334e-08
8.7724728e-08
1.8406389e-08
6.5363889e-08
3.1543482e-15
-1.0566722e-09
3.9906007e-08
1.6535428e-07
-1.1268709e-13
-2.7273088e-10
5.0693281e-08
2.1995598e-07
2.7313864e-10
5.4104918e-08
2.4299891e-07
1.0569738e-09
5.0693549e-08
2.19956e-07
3.9906493e-08
1.6535417e-07
1.297851e-14
5.5425635e-10
5.1788015e-08
2.2335865e-07
-1.8849903e-13
6.2903786e-10
5.6452638e-08
2.9161481e-07
-6.2857082e-10
5.7932113e-08
3.1682362e-07
-5.539626e-10
5.6452476e-08
2.9161536e-07
5.1787981e-08
2.2335918e-07
2.4144281e-14
1.8619374e-09
4.3280924e-08
2.2671679e-07
-2.1166075e-13
1.3117984e-09
4.1313028e-08
2.8504299e-07
-1.3113133e-09
4.2339301e-08
3.0448455e-07
-1.8615721e-09
4.1312818e-08
2.8504334e-07
4.3280724e-08
2.2671732e-07
3.3140498e-14
2.1697838e-09
1.844627e-07
-2.0864446e-13
2.8535733e-08
1.516534e-09
2.3350283e-07
2.4474046e-08
-1.5160935e-09
2.5038004e-07
2.6224551e-08
-2.1694507e-09
2.3350274e-07
2.4473981e-08
1.8446307e-07
4.8492158e-14
2.8535541e-08
-4.0256189e-10
9.6929103e-09
5.6073739e-08
2.3848011e-14
-2.1494911e-10
1.3289332e-08
7.4247932e-08
2.1490419e-10
1.5031797e-08
8.182017e-08
4.0253121e-10
1.328921e-08
7.4247891e-08
9.6927829e-09
5.6073639e-08
-8.0684288e-16
-5.9799993e-10
2.463665e-08
1.510086e-07
-6.129356e-14
-4.0291636e-10
3.1387301e-08
2.0166292e-07
4.0305344e-10
3.4343531e-08
2.2288121e-07
5.9812541e-10
3.1387148e-08
2.0166299e-07
2.4636473e-08
1.510086e-07
1.097042e-14
4.0441003e-10
3.4427167e-08
2.1316383e-07
-1.0974049e-13
2.1167413e-10
3.9651701e-08
2.8354315e-07
-2.1142981e-10
4.1383076e-08
3.1020718e-07
-4.0422686e-10
3.9651588e-08
2.8354372e-07
3.4426951e-08
2.1316445e-07
2.5254899e-14
1.5526329e-09
3.1595335e-08
2.2799609e-07
-9.4716275e-14
9.440734e-10
3.1106428e-08
2.9419682e-07
-9.4381986e-10
3.1457887e-08
3.1629763e-07
-1.5524586e-09
3.1106423e-08
2.9419715e-07
3.1595092e-08
2.2799668e-07
4.1814523e-14
1.9538249e-09
1.9400553e-07
-3.9464775e-14
2.0098726e-08
1.0160257e-09
2.4764219e-07
1.7904869e-08
-1.0158623e-09
2.6543832e-07
1.8431499e-08
-1.9537445e-09
2.4764216e-07
1.7904886e-08
1.9400566e-07
6.4127098e-14
2.0098696e-08
3.1739873e-11
3.6382821e-09
5.2403638e-08
7.8793796e-14
1.371303e-11
5.8124154e-09
6.8453544e-08
-1.3983417e-11
6.91351e-09
7.4934357e-08
-3.1900696e-11
5.8121974e-09
6.8453612e-08
3.638042e-09
5.2403707e-08
-1.0817904e-14
-1.0265132e-10
1.4303845e-08
1.4044561e-07
8.6407817e-14
-1.088453e-10
1.9724833e-08
1.877567e-07
1.0869328e-10
2.2241528e-08
2.0733566e-07
1.0248377e-10
1.9724589e-08
1.8775681e-07
1.4303411e-08
1.4044572e-07
-7.2439757e-15
4.356922e-10
2.4155307e-08
2.0287663e-07
4.8522301e-14
2.9005551e-10
3.0045995e-08
2.7336763e-07
-2.9015519e-10
3.2326141e-08
3.0070278e-07
-4.3577977e-10
3.0045964e-08
2.7336797e-07
2.4155056e-08
2.0287702e-07
5.620769e-15
1.5229237e-09
2.5567317e-08
2.250611e-07
5.3741155e-14
8.9051449e-10
2.747897e-08
2.9739626e-07
-8.9062617e-10
2.8090172e-08
3.2231474e-07
-1.523045e-09
2.7479047e-08
2.9739649e-07
2.5567197e-08
2.2506149e-07
1.1125654e-14
2.1119063e-09
1.9950104e-07
9.0577507e-14
1.7959802e-08
1.047981e-09
2.5924008e-07
1.6945012e-08
-1.0481692e-09
2.7860228e-07
1.7022363e-08
-2.112093e-09
2.5924009e-07
1.6945036e-08
1.9950102e-07
1.0891315e-14
1.7959737e-08
9.0579153e-11
1.7225973e-09
5.0590399e-08
6.313486e-14
9.7461732e-11
2.4737188e-09
6.5972944e-08
-9.7624958e-11
3.068319e-09
7.2061126e-08
-9.0713505e-11
2.4737008e-09
6.5973e-08
1.7225396e-09
5.059047e-08
-1.4990849e-14
5.7354867e-11
8.2777676e-09
1.3383296e-07
1.2211045e-13
2.9972091e-12
1.1812807e-08
1.7847197e-07
-3.244829e-12
1.3713507e-08
1.9669671e-07
-5.7538358e-11
1.1812777e-08
1.7847203e-07
8.2776903e-09
1.3383306e-07
-2.1404267e-14
3.1133791e-10
1.6419731e-08
1.9442322e-07
1.1494571e-13
1.6560046e-10
2.1693494e-08
2.6363268e-07
-1.6582045e-10
2.3860478e-08
2.9088723e-07
-3.1150715e-10
2.169363e-08
2.636328e-07
1.6419825e-08
1.944234e-07
-1.4035027e-14
1.1793502e-09
1.9718435e-08
2.2058294e-07
1.0469265e-13
6.8543636e-10
2.2952768e-08
2.966309e-07
-6.8558929e-10
2.3890175e-08
3.2365607e-07
-1.1795042e-09
2.2952997e-08
2.9663104e-07
1.9718654e-08
2.2058317e-07
-9.457447e-15
1.8427524e-09
2.0194949e-07
1.0716564e-13
1.5427127e-08
9.5157121e-10
2.6740828e-07
1.5675744e-08
-9.5167818e-10
2.8874156e-07
1.5654148e-08
-1.8428893e-09
2.674084e-07
1.5675899e-08
2.019495e-07
-1.2045834e-14
1.5427296e-08
3.2003494e-11
9.9493619e-10
4.956342e-08
4.0271117e-14
6.4645379e-11
1.2454329e-09
6.469487e-08
-6.4758247e-11
1.5234556e-09
7.0667075e-08
-3.2087873e-11
1.2454347e-09
6.4694896e-08
9.9491851e-10
4.9563482e-08
-1.7382905e-14
6.7284276e-11
5.0478439e-09
1.2971265e-07
1.1483228e-13
4.0880079e-11
7.266362e-09
1.7247745e-07
-4.1226318e-11
8.5416377e-09
1.8976064e-07
-6.7481682e-11
7.2662812e-09
1.7247744e-07
5.0477977e-09
1.2971273e-07
-3.0780266e-14
2.2303829e-10
1.1070548e-08
1.8817734e-07
1.3642825e-13
7.6212211e-11
1.5398412e-08
2.5564746e-07
-7.6518719e-11
1.714501e-08
2.8243659e-07
-2.2325635e-10
1.5398421e-08
2.556474e-07
1.1070582e-08
1.8817738e-07
-2.7168554e-14
8.7400861e-10
1.4567373e-08
2.1621198e-07
1.3361646e-13
4.5034539e-10
1.8212294e-08
2.9424068e-07
-4.5057171e-10
1.907518e-08
3.2262682e-07
-8.7421497e-10
1.8212432e-08
2.9424067e-07
1.4567548e-08
2.1621201e-07
-2.0978351e-14
1.4846698e-09
2.0275379e-07
1.3726206e-13
1.2278269e-08
7.483768e-10
2.729223e-07
1.3434572e-08
-7.4855254e-10
2.9598509e-07
1.3328577e-08
-1.4848546e-09
2.7292246e-07
1.3434681e-08
2.0275377e-07
-2.0044838e-14
1.227844e-08
-7.156967e-12
6.5163996e-10
4.8918919e-08
1.79459e-14
2.7782248e-11
7.7468387e-10
6.3885248e-08
-2.786843e-11
9.3238934e-10
6.9790337e-08
7.0898374e-12
7.7467701e-10
6.3885261e-08
6.5162725e-10
4.8918967e-08
-2.1846108e-14
4.9926045e-11
3.2811279e-09
1.2703316e-07
8.4404257e-14
4.2070942e-11
4.774935e-09
1.6848505e-07
-4.235786e-11
5.6778013e-09
1.8509965e-07
-5.0091754e-11
4.7748498e-09
1.68485e-07
3.2811213e-09
1.2703319e-07
-4.4556336e-14
1.8556569e-10
7.6960573e-09
1.8357672e-07
1.2264106e-13
4.9941837e-11
1.1183592e-08
2.4937442e-07
-5.030359e-11
1.2619579e-08
2.7559506e-07
-1.857941e-10
1.1183536e-08
2.4937421e-07
7.6961197e-09
1.8357664e-07
-4.852996e-14
6.9288827e-10
1.0855216e-08
2.1235981e-07
1.2260892e-13
3.147761e-10
1.4494904e-08
2.9130748e-07
-3.1507031e-10
1.5264466e-08
3.2061178e-07
-6.931142e-10
1.4494978e-08
2.9130727e-07
1.0855389e-08
2.1235967e-07
-4.7133934e-14
1.2268199e-09
2.0264885e-07
1.2215315e-13
9.733216e-09
5.937566e-10
2.7668219e-07
1.1368079e-08
-5.9400744e-10
3.0127469e-07
1.1162629e-08
-1.2270235e-09
2.7668232e-07
1.1368132e-08
2.0264884e-07
-5.3559027e-14
9.7333552e-09
-1.9099019e-11
4.7489605e-10
4.8463124e-08
-2.111008e-15
1.2383646e-11
5.7849897e-10
6.3275267e-08
-1.2425673e-11
6.9379481e-10
6.9121352e-08
1.9050446e-11
5.7849513e-10
6.3275291e-08
4.7487225e-10
4.8463167e-08
-2.1734285e-14
3.7157377e-11
2.3061314e-09
1.2516472e-07
4.3420774e-14
3.7719709e-11
3.3848275e-09
1.6567817e-07
-3.7962671e-11
4.0423421e-09
1.8182679e-07
-3.7284317e-11
3.3847188e-09
1.656781e-07
2.3060986e-09
1.2516473e-07
-4.9814115e-14
1.6545613e-10
5.637306e-09
1.8008e-07
8.7728359e-14
4.8287694e-11
8.5109406e-09
2.4436548e-07
-4.8624006e-11
9.7016082e-09
2.700327e-07
-1.656657e-10
8.5108026e-09
2.4436517e-07
5.6372892e-09
1.8007985e-07
-6.0231512e-14
5.8317471e-10
8.4292404e-09
2.089846e-07
9.5916833e-14
2.4191378e-10
1.1968246e-08
2.8819144e-07
-2.4223028e-10
1.2687558e-08
3.1810998e-07
-5.8339801e-10
1.1968217e-08
2.8819103e-07
8.4292898e-09
2.0898434e-07
-6.31367e-14
1.0412742e-09
2.0200442e-07
9.9339836e-14
8.032299e-09
5.0269711e-10
2.7918828e-07
1.0000732e-08
-5.0301068e-10
3.0521122e-07
9.7567401e-09
-1.0414956e-09
2.7918829e-07
1.0000735e-08
2.0200434e-07
-7.3857131e-14
8.0323628e-09
-2.2573027e-11
3.7936743e-10
4.8106351e-08
-2.0797518e-14
6.6481856e-12
4.4834198e-10
6.2797704e-08
-6.6629961e-12
5.4064744e-10
6.8594017e-08
2.2562245e-11
4.4832409e-10
6.2797742e-08
3.7933912e-10
4.8106407e-08
-1.6327419e-14
3.1916765e-11
1.7323908e-09
1.2377978e-07
5.0775399e-15
2.7172188e-11
2.5279904e-09
1.6360326e-07
-2.7323278e-11
3.0055056e-09
1.7941643e-07
-3.1994964e-11
2.5278774e-09
1.6360322e-07
1.7323181e-09
1.237798e-07
-4.9931458e-14
1.5669482e-10
4.311509e-09
1.7734415e-07
4.7056011e-14
5.4151679e-11
6.7057203e-09
2.402903e-07
-5.4445474e-11
7.6955647e-09
2.6545124e-07
-1.5687817e-10
6.7055168e-09
2.4028996e-07
4.3113769e-09
1.7734398e-07
-6.7770458e-14
4.9479269e-10
6.8015918e-09
2.0599966e-07
6.8043502e-14
2.0055847e-10
1.014037e-08
2.8505102e-07
-2.0092307e-10
1.08708e-08
3.1533623e-07
-4.9502952e-10
1.0140206e-08
2.8505044e-07
6.8014571e-09
2.059993e-07
-7.5822523e-14
8.9395724e-10
2.0102302e-07
8.9294672e-14
6.8889426e-09
4.4634497e-10
2.8072335e-07
9.0529123e-09
-4.4679435e-10
3.0807885e-07
8.8963121e-09
-8.9424202e-10
2.8072313e-07
9.0528144e-09
2.010228e-07
-8.9419998e-14
6.8888475e-09
-1.8921471e-11
2.9632804e-10
4.7828978e-08
-3.3459881e-14
4.4472365e-12
3.6670264e-10
6.2407634e-08
-4.4276472e-12
4.3767484e-10
6.8165217e-08
1.8950013e-11
3.6668515e-10
6.240768e-08
2.9632764e-10
4.7829038e-08
-7.4919343e-15
1.998409e-11
1.3354718e-09
1.2272069e-07
-4.0310418e-14
2.0498438e-11
1.9941167e-09
1.6197534e-07
-2.0578527e-11
2.3450181e-09
1.7755016e-07
-2.0008836e-11
1.9940121e-09
1.6197532e-07
1.3354225e-09
1.2272074e-07
-3.4780364e-14
1.3371738e-10
3.3779889e-09
1.7516791e-07
-2.5653714e-15
5.1409238e-11
5.3977151e-09
2.3696901e-07
-5.160841e-11
6.2196632e-09
2.6167962e-07
-1.3383432e-10
5.3975137e-09
2.3696869e-07
3.3778514e-09
1.7516778e-07
-6.0305371e-14
4.1308593e-10
5.5708107e-09
2.0339373e-07
2.1690675e-14
1.6740713e-10
8.652614e-09
2.8204181e-07
-1.6770245e-10
9.3947075e-09
3.1249629e-07
-4.1327152e-10
8.6524064e-09
2.8204112e-07
5.5706176e-09
2.0339334e-07
-7.3845877e-14
7.5731416e-10
1.9986135e-07
5.0019108e-14
5.9751253e-09
4.0023718e-10
2.8149535e-07
8.2376988e-09
-4.0065019e-10
3.1007023e-07
8.2042182e-09
-7.5756625e-10
2.8149488e-07
8.2375737e-09
1.9986097e-07
-8.5791077e-14
5.9749662e-09
-1.2552156e-11
2.2991723e-10
4.7611655e-08
-4.134519e-14
3.2971163e-12
2.8942845e-10
6.2102357e-08
-3.2417206e-12
3.3940469e-10
6.7832352e-08
1.2620218e-11
2.8940049e-10
6.2102418e-08
2.2993176e-10
4.7611725e-08
2.3699103e-15
1.7960791e-11
1.0442509e-09
1.2188846e-07
-5.9607268e-14
1.7287174e-11
1.5631765e-09
1.6070226e-07
-1.7274147e-11
1.818868e-09
1.7610526e-07
-1.7940708e-11
1.5630931e-09
1.607023e-07
1.0442069e-09
1.2188854e-07
-2.072321e-14
1.188537e-10
2.6667599e-09
1.7342659e-07
-4.2593349e-14
4.8991905e-11
4.3483964e-09
2.3425365e-07
-4.909706e-11
5.0247171e-09
2.5857186e-07
-1.1890679e-10
4.3482005e-09
2.3425339e-07
2.6666022e-09
1.7342652e-07
-4.5755199e-14
3.4834296e-10
4.5636397e-09
2.0114853e-07
-1.5601973e-14
1.4188736e-10
7.3436062e-09
2.7925305e-07
-1.4210996e-10
8.0677334e-09
3.0973727e-07
-3.4848101e-10
7.3433536e-09
2.7925234e-07
4.5633834e-09
2.0114814e-07
-6.4114037e-14
6.3636055e-10
1.9862715e-07
2.655377e-14
5.1614488e-09
3.5255812e-10
2.8168981e-07
7.4329447e-09
-3.5293805e-10
3.1134107e-07
7.5023832e-09
-6.3659113e-10
2.8168913e-07
7.4327575e-09
1.9862663e-07
-7.6327694e-14
5.1612094e-09
-8.7849841e-12
1.7233449e-10
4.7448158e-08
-5.1933723e-14
1.9558526e-12
2.186465e-10
6.187297e-08
-1.8492027e-12
2.5263609e-10
6.7583522e-08
8.9100201e-12
2.1863049e-10
6.1873029e-08
1.7240116e-10
4.7448218e-08
1.6632866e-14
1.7975221e-11
8.0018342e-10
1.2124272e-07
-8.6996872e-14
1.4427507e-11
1.2022705e-09
1.5972219e-07
-1.4272491e-11
1.3947838e-09
1.7499182e-07
-1.7879116e-11
1.2022845e-09
1.5972225e-07
8.0023754e-10
1.2124283e-07
3.1591848e-15
1.0818732e-10
2.0959787e-09
1.720227e-07
-8.3325323e-14
4.6363688e-11
3.4795029e-09
2.3203824e-07
-4.6317218e-11
4.0390044e-09
2.5602032e-07
-1.0813273e-10
3.4794333e-09
2.3203806e-07
2.0959648e-09
1.7202268e-07
-2.0004673e-14
3.0071808e-10
3.7228961e-09
1.9922097e-07
-7.3523418e-14
1.2144786e-10
6.1918986e-09
2.7671993e-07
-1.2147869e-10
6.8754136e-09
3.0714379e-07
-3.0073044e-10
6.1917471e-09
2.7671928e-07
3.7227785e-09
1.9922064e-07
-3.8696245e-14
5.3788802e-10
1.9738517e-07
-4.5410675e-14
4.4270394e-09
3.071557e-10
2.8145905e-07
6.6533901e-09
-3.0727908e-10
3.1201166e-07
6.8192648e-09
-5.3796064e-10
2.814583e-07
6.6532601e-09
1.9738461e-07
-4.6586648e-14
4.4268927e-09
-8.0294901e-12
1.2712893e-10
4.7329118e-08
-5.9322114e-14
4.7509793e-13
1.5909255e-10
6.1705374e-08
-3.1675539e-13
1.8201837e-10
6.7402296e-08
8.2072011e-12
1.5908746e-10
6.1705419e-08
1.2724542e-10
4.732915e-08
2.9973634e-14
1.5560469e-11
6.0583759e-10
1.2074857e-07
-1.1242783e-13
1.0769324e-11
9.2479825e-10
1.5896127e-07
-1.0457389e-11
1.0679132e-09
1.7412715e-07
-1.5382971e-11
9.2491748e-10
1.5896135e-07
6.0599801e-10
1.2074866e-07
3.3341816e-14
9.65519e-11
1.6439688e-09
1.7088814e-07
-1.2158802e-13
4.2759109e-11
2.7901504e-09
2.3022668e-07
-4.2550142e-11
3.2503295e-09
2.5392321e-07
-9.6377899e-11
2.7902155e-09
2.3022659e-07
1.6441074e-09
1.7088818e-07
1.4004272e-14
2.6049295e-10
3.033452e-09
1.9757111e-07
-1.2035743e-13
1.0620853e-10
5.2113069e-09
2.7445306e-07
-1.0603347e-10
5.8474844e-09
3.0475888e-07
-2.6036452e-10
5.2112646e-09
2.7445256e-07
3.0334905e-09
1.975709e-07
-6.9969549e-15
4.5657085e-10
1.9617791e-07
-1.1635761e-13
3.7842532e-09
2.6263894e-10
2.8094662e-07
5.9176736e-09
-2.6248311e-10
3.1221155e-07
6.1727138e-09
-4.5646587e-10
2.8094594e-07
5.9176016e-09
1.9617742e-07
-1.4413072e-14
3.7842234e-09
-7.6835129e-12
9.2185765e-11
4.7244678e-08
-6.2475874e-14
-5.0094648e-13
1.1305195e-10
6.158514e-08
7.0420393e-13
1.2908123e-10
6.7272011e-08
7.9061813e-12
1.1305879e-10
6.1585159e-08
9.2358817e-11
4.7244657e-08
4.1205796e-14
1.2604022e-11
4.5872485e-10
1.2036956e-07
-1.3292824e-13
7.543883e-12
7.0973284e-10
1.5836965e-07
-7.0476798e-12
8.1892903e-10
1.734519e-07
-1.2344543e-11
7.0999273e-10
1.5836971e-07
4.5901891e-10
1.2036959e-07
6.2129462e-14
8.4159652e-11
1.2957213e-09
1.6996714e-07
-1.5762965e-13
3.8876725e-11
2.2414645e-09
2.2874024e-07
-3.8479454e-11
2.6280301e-09
2.5219147e-07
-8.3847586e-11
2.2417233e-09
2.2874023e-07
1.2960814e-09
1.6996722e-07
5.1480497e-14
2.282323e-10
2.4816399e-09
1.9615713e-07
-1.7179044e-13
9.2609567e-11
4.4020519e-09
2.7242809e-07
-9.2175999e-11
4.9846931e-09
3.02587e-07
-2.2792195e-10
4.4021983e-09
2.7242783e-07
2.4819361e-09
1.9615708e-07
3.9016962e-14
3.91232e-10
1.9502885e-07
-2.0465045e-13
3.2396761e-09
2.2493565e-10
2.8024915e-07
5.2658235e-09
-2.243871e-10
3.1205566e-07
5.5899052e-09
-3.9087568e-10
2.8024874e-07
5.2658931e-09
1.9502858e-07
3.5897251e-14
3.2398695e-09
-6.9848318e-12
6.3675826e-11
4.7188045e-08
-5.6916597e-14
-1.1604409e-12
7.7284329e-11
6.1502033e-08
1.3915639e-12
8.8457284e-11
6.7181003e-08
7.2241501e-12
7.7304774e-11
6.150202e-08
6.3869545e-11
4.7187963e-08
4.8243456e-14
1.0120232e-11
3.4199112e-10
1.2008126e-07
-1.3898949e-13
5.1182077e-12
5.4161763e-10
1.5791033e-07
-4.4397638e-12
6.2589288e-10
1.7292403e-07
-9.8028054e-12
5.4199114e-10
1.5791038e-07
3.4235026e-10
1.2008122e-07
8.7979132e-14
7.2816302e-11
1.0195745e-09
1.6921692e-07
-1.7860181e-13
3.4989462e-11
1.8066873e-09
2.2751299e-07
-3.4428665e-11
2.1327184e-09
2.5075407e-07
-7.2386978e-11
1.8070969e-09
2.2751308e-07
1.0200756e-09
1.6921702e-07
8.8316264e-14
2.0049582e-10
2.0333714e-09
1.9494305e-07
-2.0528998e-13
8.1124345e-11
3.7252866e-09
2.7062887e-07
-8.0477249e-11
4.2544063e-09
3.0062692e-07
-2.0002978e-10
3.7255854e-09
2.706289e-07
2.0338603e-09
1.9494319e-07
8.1295545e-14
3.3638662e-10
1.9395074e-07
-2.6646448e-13
2.7753611e-09
1.9332083e-10
2.7943742e-07
4.6800783e-09
-1.9245615e-10
3.1164722e-07
5.04863e-09
-3.358192e-10
2.7943742e-07
4.6802709e-09
1.9395079e-07
8.6069834e-14
2.7757439e-09
-6.4907157e-12
4.1904003e-11
4.7152679e-08
-4.8028601e-14
-1.5905074e-12
5.0400495e-11
6.1446732e-08
1.846671e-12
5.7742163e-11
6.7119828e-08
6.7208522e-12
5.0460833e-11
6.144669e-08
4.2093996e-11
4.7152541e-08
4.7579065e-14
7.9727832e-12
2.4863587e-10
1.198667e-07
-1.3533701e-13
2.9172968e-12
4.0783735e-10
1.5755796e-07
-2.1899662e-12
4.7063782e-10
1.7251622e-07
-7.6097225e-12
4.0827957e-10
1.5755798e-07
2.4902594e-10
1.1986657e-07
1.0296271e-13
6.2478608e-11
7.9677742e-10
1.6860649e-07
-1.870653e-13
3.051398e-11
1.4541288e-09
2.2649867e-07
-2.9827988e-11
1.7232422e-09
2.495618e-07
-6.1964956e-11
1.4546532e-09
2.2649884e-07
7.9736517e-10
1.686066e-07
1.1913775e-13
1.7648046e-10
1.6635671e-09
1.939e-07
-2.2191657e-13
7.3790441e-11
3.1493719e-09
2.6903632e-07
-7.297157e-11
3.6340678e-09
2.9886286e-07
-1.7588855e-10
3.1498071e-09
2.6903666e-07
1.6641994e-09
1.9390035e-07
1.2254311e-13
2.9067336e-10
1.9294967e-07
-2.9996857e-13
2.3742609e-09
1.6871207e-10
2.7855954e-07
4.1492209e-09
-1.6758099e-10
3.1106969e-07
4.5478891e-09
-2.8993192e-10
2.7856003e-07
4.1495456e-09
1.9295011e-07
1.3949194e-13
2.3748056e-09
-6.0368869e-12
2.3209721e-11
4.713553e-08
-2.5164245e-14
-1.7418611e-12
2.6813783e-11
6.1415626e-08
1.8844546e-12
3.0901904e-11
6.7085303e-08
6.2077325e-12
2.6855866e-11
6.1415513e-08
2.3362702e-11
4.7135344e-08
3.9661948e-14
6.2687181e-12
1.696492e-10
1.1971409e-07
-1.0561418e-13
1.4354475e-12
2.9493264e-10
1.5729468e-07
-9.1354325e-13
3.4125727e-10
1.7220822e-07
-5.9589132e-12
2.9526817e-10
1.5729462e-07
1.6999006e-10
1.1971388e-07
1.001516e-13
5.3363323e-11
6.1044957e-10
1.6811249e-07
-1.6912914e-13
2.6158016e-11
1.1594787e-09
2.2566134e-07
-2.5408538e-11
1.3827047e-09
2.4857192e-07
-5.2843879e-11
1.1599883e-09
2.2566156e-07
6.110155e-10
1.681126e-07
1.2947208e-13
1.5548783e-10
1.3507598e-09
1.9300442e-07
-2.1059929e-13
6.7108383e-11
2.6525805e-09
2.676316e-07
-6.6217862e-11
3.096082e-09
2.972828e-07
-1.5485293e-10
2.6530522e-09
2.6763223e-07
1.3514189e-09
1.9300495e-07
1.4358184e-13
2.5180725e-10
1.9202711e-07
-2.9023046e-13
2.0218022e-09
1.4746786e-10
2.7765313e-07
3.6633236e-09
-1.4623465e-10
3.1038257e-07
4.0769023e-09
-2.5100146e-10
2.7765414e-07
3.663712e-09
1.9202795e-07
1.729166e-13
2.0224085e-09
-5.5632462e-12
6.3341953e-12
4.7134758e-08
-2.2414792e-15
-1.8703521e-12
5.1588015e-12
6.1406766e-08
1.9600225e-12
6.3865262e-12
6.7075098e-08
5.6658913e-12
5.1879604e-12
6.140662e-08
6.4308373e-12
4.7134549e-08
3.1094889e-14
4.8336685e-12
1.0354482e-10
1.1961207e-07
-6.4999424e-14
4.2239151e-13
1.9932678e-10
1.5710496e-07
2.2400264e-14
2.3289082e-10
1.7198214e-07
-4.6076098e-12
1.9959258e-10
1.5710486e-07
1.037808e-10
1.1961181e-07
8.8261242e-14
4.5336005e-11
4.5527496e-10
1.6771554e-07
-1.3332692e-13
2.2079589e-11
9.1203156e-10
2.2497191e-07
-2.1368456e-11
1.0973985e-09
2.4775087e-07
-4.4862856e-11
9.1248315e-10
2.2497218e-07
4.5574587e-10
1.6771563e-07
1.2489336e-13
1.3665095e-10
1.0875752e-09
1.9223564e-07
-1.7776902e-13
6.0528764e-11
2.2241435e-09
2.6639561e-07
-5.9672624e-11
2.6273864e-09
2.9587302e-07
-1.3604152e-10
2.2245994e-09
2.6639649e-07
1.088185e-09
1.9223631e-07
1.4775693e-13
2.1875049e-10
1.9118166e-07
-2.465139e-13
1.7145283e-09
1.2896544e-10
2.7674553e-07
3.2215361e-09
-1.2776047e-10
3.09626e-07
3.6406894e-09
-2.1796851e-10
2.7674699e-07
3.2219556e-09
1.9118285e-07
1.8711978e-13
1.7151301e-09
-5.1442418e-12
-7.4043433e-12
4.714728e-08
2.6333727e-14
-1.9315593e-12
-1.1728892e-11
6.1415238e-08
1.9197641e-12
-1.1907367e-11
6.708319e-08
5.1640259e-12
-1.1711224e-11
6.1415101e-08
-7.3833868e-12
4.7147065e-08
5.6789036e-14
3.4421912e-12
4.7523104e-11
1.1955371e-07
-1.4770889e-14
-5.7555414e-13
1.1907939e-10
1.5697817e-07
8.5423942e-13
1.4276617e-10
1.7182606e-07
-3.3359051e-12
1.1926705e-10
1.5697804e-07
4.7598418e-11
1.1955341e-07
1.0802627e-13
3.8219154e-11
3.235342e-10
1.6740141e-07
-8.2542677e-14
1.8410521e-11
7.0263495e-10
2.2440817e-07
-1.7843444e-11
8.5641731e-10
2.470735e-07
-3.7845675e-11
7.0297992e-10
2.2440845e-07
3.2379997e-10
1.6740148e-07
1.2495421e-13
1.1966741e-10
8.6322941e-10
1.9157639e-07
-1.2717547e-13
5.4397039e-11
1.852686e-09
2.6531083e-07
-5.3699015e-11
2.217006e-09
2.9462054e-07
-1.1916355e-10
1.8530585e-09
2.6531187e-07
8.636651e-10
1.9157716e-07
1.4157029e-13
1.8909671e-10
1.9040909e-07
-1.7330725e-13
1.446868e-09
1.1264012e-10
2.7585557e-07
2.8191012e-09
-1.1164505e-10
3.0883253e-07
3.2347622e-09
-1.8845501e-10
2.7585737e-07
2.819484e-09
1.9041054e-07
1.7402496e-13
1.4473549e-09
-5.0363034e-12
-1.8224219e-11
4.7170466e-08
5.0200796e-14
-1.8951139e-12
-2.6231697e-11
6.1438376e-08
1.8087915e-12
-2.7573492e-11
6.710707e-08
4.932998e-12
-2.6246431e-11
6.1438245e-08
-1.830994e-11
4.7170313e-08
-1.3061965e-14
2.8836675e-12
-5.4098849e-13
1.1953311e-07
4.2462825e-14
-9.9641639e-13
5.2090419e-11
1.5690373e-07
1.2232005e-12
6.8027546e-11
1.7172824e-07
-2.7234426e-12
5.2146538e-11
1.5690358e-07
-5.2645828e-13
1.1953288e-07
2.110754e-14
3.1566327e-11
2.1370005e-10
1.6715563e-07
-1.4657958e-14
1.4885831e-11
5.267775e-10
2.2395016e-07
-1.4538758e-11
6.5417017e-10
2.4651678e-07
-3.1366583e-11
5.2697777e-10
2.2395043e-07
2.1379526e-10
1.6715571e-07
6.6193746e-14
1.0391751e-10
6.7454602e-10
1.9101169e-07
-5.4922743e-14
4.840315e-11
1.5331346e-09
2.6435999e-07
-4.7940022e-11
1.8609531e-09
2.935101e-07
-1.0358403e-10
1.5333899e-09
2.643611e-07
6.7477751e-10
1.9101249e-07
9.5316115e-14
1.6300855e-10
1.8970704e-07
-8.1819454e-14
1.2136663e-09
9.8243496e-11
2.7499613e-07
2.4573348e-09
-9.7554643e-11
3.0802654e-07
2.8627406e-09
-1.6257699e-10
2.7499814e-07
2.4576463e-09
1.8970863e-07
1.280319e-13
1.2139801e-09
-4.943555e-12
-2.7720723e-11
4.720307e-08
7.095866e-14
-1.921959e-12
-3.8986811e-11
6.1474343e-08
1.7379124e-12
-4.1539775e-11
6.7144952e-08
4.7664074e-12
-3.9030651e-11
6.1474245e-08
-2.7861734e-11
4.7202966e-08
-3.6584796e-14
1.2435997e-12
-3.751179e-11
1.1954156e-07
9.8602021e-14
-1.6315684e-12
-6.4383443e-12
1.5687406e-07
1.5046702e-12
2.5538265e-12
1.7168101e-07
-1.3815785e-12
-6.481858e-12
1.5687392e-07
-3.772602e-11
1.1954139e-07
-2.4865665e-14
2.6677833e-11
1.2185292e-10
1.6696953e-07
5.440268e-14
1.2165958e-11
3.7547626e-10
2.2358276e-07
-1.2110695e-11
4.8026987e-10
2.4606334e-07
-2.6659686e-11
3.7549938e-10
2.23583e-07
1.2168265e-10
1.6696963e-07
1.7093915e-14
9.0461922e-11
5.1319924e-10
1.9052986e-07
2.1678596e-14
4.3168878e-11
1.2542543e-09
2.6352851e-07
-4.301895e-11
1.5481442e-09
2.9252842e-07
-9.0346846e-11
1.254342e-09
2.6352959e-07
5.131483e-10
1.9053063e-07
4.1845351e-14
1.4050587e-10
1.8907152e-07
3.0823267e-14
1.0081848e-09
8.5919583e-11
2.7417566e-07
2.1293171e-09
-8.5658098e-11
3.0722608e-07
2.520188e-09
-1.4035696e-10
2.7417769e-07
2.1294908e-09
1.890731e-07
5.8589942e-14
1.0082596e-09
-4.801518e-12
-3.5942241e-11
4.7243731e-08
8.3344839e-14
-1.8912128e-12
-4.948127e-11
6.1520915e-08
1.62962e-12
-5.2753027e-11
6.7194185e-08
4.5557479e-12
-4.9537364e-11
6.1520857e-08
-3.6121118e-11
4.7243699e-08
-5.6555643e-14
-1.4604198e-13
-7.1170148e-11
1.1957679e-07
1.4176897e-13
-2.0589484e-12
-5.5468273e-11
1.5688196e-07
1.7374433e-12
-5.0478555e-11
1.7167494e-07
-1.5772053e-13
-5.5571686e-11
1.5688185e-07
-7.1530728e-11
1.1957671e-07
-7.3741037e-14
2.2011697e-11
4.2288069e-11
1.6683394e-07
1.1792314e-13
9.510896e-12
2.4695871e-10
2.2329284e-07
-9.764819e-12
3.3361222e-10
2.4569853e-07
-2.2185367e-11
2.4682164e-10
2.2329303e-07
4.1885765e-11
1.6683407e-07
-3.9321647e-14
7.7704748e-11
3.747404e-10
1.9011961e-07
9.4926155e-14
3.8010814e-11
1.0127052e-09
2.6280246e-07
-3.8183035e-11
1.2753238e-09
2.916629e-07
-7.7819054e-11
1.0126275e-09
2.6280342e-07
3.7442865e-10
1.9012029e-07
-1.7129635e-14
1.2065363e-10
1.8849775e-07
1.2591723e-13
8.2773583e-10
7.5100625e-11
2.7339884e-07
1.8350771e-09
-7.5272055e-11
3.064444e-07
2.2073714e-09
-1.2079271e-10
2.7340074e-07
1.8351001e-09
1.884992e-07
-2.1279283e-14
8.2756336e-10
-4.6606198e-12
-4.299961e-11
4.7291303e-08
8.8422753e-14
-1.8203124e-12
-5.8761086e-11
6.1576836e-08
1.5103871e-12
-6.2813352e-11
6.7253668e-08
4.3747156e-12
-5.8829263e-11
6.1576822e-08
-4.3200688e-11
4.7291345e-08
-7.0691449e-14
-1.2279227e-12
-9.9679284e-11
1.1963452e-07
1.763888e-13
-2.3417377e-12
-9.8148641e-11
1.5692246e-07
1.8511444e-12
-9.802226e-11
1.7170595e-07
7.8610961e-13
-9.8292172e-11
1.5692238e-07
-1.0014628e-10
1.1963456e-07
-1.1752951e-13
1.7979542e-11
-2.614239e-11
1.6674225e-07
1.7531949e-13
7.5302847e-12
1.3515425e-10
2.2306998e-07
-8.0825874e-12
2.051756e-10
2.4541095e-07
-1.8326371e-11
1.3486205e-10
2.2307012e-07
-2.6716543e-11
1.6674241e-07
-9.8734922e-14
6.625386e-11
2.5445656e-10
1.897726e-07
1.6006357e-13
3.3267552e-11
8.0043848e-10
2.6217016e-07
-3.3759035e-11
1.033874e-09
2.9090123e-07
-6.6601045e-11
8.0018246e-10
2.6217094e-07
2.5388589e-10
1.8977317e-07
-8.3446329e-14
1.032312e-10
1.8798152e-07
2.0868178e-13
6.6725064e-10
6.5323346e-11
2.7266816e-07
1.5690267e-09
-6.5949907e-11
3.0568968e-07
1.9198724e-09
-1.0366519e-10
2.7266978e-07
1.5688562e-09
1.8798272e-07
-1.0800094e-13
6.6680982e-10
-4.5872573e-12
-4.8733422e-11
4.7344537e-08
8.7122977e-14
-1.7616607e-12
-6.6382389e-11
6.1640393e-08
1.4350118e-12
-7.0996707e-11
6.7321468e-08
4.2997203e-12
-6.6473933e-11
6.1640432e-08
-4.8909731e-11
4.7344633e-08
-7.8346345e-14
-2.4568302e-12
-1.231073e-10
1.1971114e-07
2.0769279e-13
-2.635174e-12
-1.3397451e-10
1.5699023e-07
2.016131e-12
-1.3712742e-10
1.7176743e-07
1.7741244e-12
-1.340505e-10
1.569902e-07
-1.2369428e-10
1.1971128e-07
-1.5551313e-13
1.4144649e-11
-8.3143844e-11
1.6668793e-07
2.1747512e-13
5.4415324e-12
3.9915581e-11
2.229048e-07
-6.2553222e-12
9.5911092e-11
2.451896e-07
-1.4616743e-11
3.9557571e-11
2.2290487e-07
-8.3869605e-11
1.6668812e-07
-1.4866576e-13
5.6210855e-11
1.5116467e-10
1.8948187e-07
2.1186227e-13
2.8653451e-11
6.1601502e-10
2.6162162e-07
-2.9421685e-11
8.2212874e-10
2.9023309e-07
-5.673466e-11
6.1562822e-10
2.6162218e-07
1.5042043e-10
1.8948228e-07
-1.3893405e-13
8.822635e-11
1.8751811e-07
2.661039e-13
5.2608008e-10
5.6903861e-11
2.7198481e-07
1.3306898e-09
-5.7882644e-11
3.0496883e-07
1.657769e-09
-8.888052e-11
2.7198605e-07
1.3303571e-09
1.8751899e-07
-1.7839559e-13
5.2544973e-10
-4.4263578e-12
-5.395941e-11
4.7402848e-08
7.4846107e-14
-1.6158074e-12
-7.3313104e-11
6.1710896e-08
1.3118545e-12
-7.7923854e-11
6.7396465e-08
4.1570072e-12
-7.3389513e-11
6.1710976e-08
-5.4119795e-11
4.7402989e-08
-7.8844249e-14
-3.5973896e-12
-1.4379113e-10
1.1980437e-07
2.0391107e-13
-2.6991058e-12
-1.6639329e-10
1.5708241e-07
2.0253564e-12
-1.7021406e-10
1.71855e-07
2.7750646e-12
-1.6638407e-10
1.5708245e-07
-1.4446718e-10
1.1980459e-07
-1.8514759e-13
1.1035857e-11
-1.3335452e-10
1.6666622e-07
2.3225371e-13
4.2311275e-12
-4.609062e-11
2.227913e-07
-5.2574623e-12
4.0717357e-12
2.4502481e-07
-1.1584526e-11
-4.6530137e-11
2.2279135e-07
-1.3419332e-10
1.6666645e-07
-1.8875264e-13
4.7088336e-11
6.1345407e-11
1.8923983e-07
2.4976602e-13
2.351395e-11
4.5237196e-10
2.6114673e-07
-2.4456993e-11
6.3480401e-10
2.8965033e-07
-4.7742248e-11
4.5187772e-10
2.6114706e-07
6.0466993e-11
1.8924008e-07
-1.9546129e-13
7.4871026e-11