/*--------------------------------*- C++ -*----------------------------------*\
| =========                 |                                                 |
| \\      /  F ield         | OpenFOAM: The Open Source CFD Toolbox           |
|  \\    /   O peration     | Version:  2.3.x                                 |
|   \\  /    A nd           | Web:      www.OpenFOAM.org                      |
|    \\/     M anipulation  |                                                 |
\*---------------------------------------------------------------------------*/
FoamFile
{
    version     2.0;
    format      ascii;
    class       volVectorField;
    location    "0.027";
    object      U;
}
// * * * * * * * * * * * * * * * * * * * * * * * * * * * * * * * * * * * * * //

dimensions      [0 1 -1 0 0 0 0];

internalField   nonuniform List<vector> 
10000
(
(0.22701856 0.031490594 1.6919179)
(0.20708407 0.088401216 1.8115619)
(0.15659299 0.15659282 1.8479199)
(0.088401409 0.20708391 1.8115622)
(0.031490773 0.22701838 1.6919185)
(0.48874702 0.088744196 2.1650806)
(0.42376234 0.19396199 2.1451241)
(0.31854388 0.31854394 2.1357778)
(0.19396189 0.42376217 2.1451237)
(0.088744231 0.48874686 2.1650796)
(0.43716014 0.090064252 2.1313955)
(0.35732694 0.1610501 2.1025727)
(0.25935518 0.25935548 2.0894378)
(0.1610499 0.35732706 2.1025727)
(0.090064097 0.43716007 2.131395)
(0.29873924 0.078054538 2.0675556)
(0.227408 0.094637337 2.0541254)
(0.16083336 0.16083346 2.0504437)
(0.0946376 0.22740851 2.0541257)
(0.078054708 0.29873988 2.0675557)
(0.20136229 0.065107001 2.050154)
(0.153333 0.052581743 2.0462948)
(0.10773575 0.10773567 2.0433273)
(0.05258201 0.15333322 2.0462951)
(0.065107244 0.2013627 2.0501543)
(0.097754909 0.023649035 1.7663271)
(0.10624479 0.064736467 1.9533026)
(0.093659747 0.093658841 2.0160156)
(0.064737635 0.10624452 1.9533028)
(0.023650057 0.09775521 1.7663276)
(0.37651291 0.06865806 2.6361892)
(0.35459606 0.16985494 2.6340567)
(0.27753814 0.27753747 2.6270489)
(0.16985597 0.3545962 2.6340583)
(0.068659327 0.37651375 2.6361927)
(0.41416901 0.074425468 2.6597171)
(0.36006149 0.164737 2.5989187)
(0.27467827 0.27467752 2.5794466)
(0.16473798 0.36006162 2.5989204)
(0.074426729 0.41417008 2.6597206)
(0.36648556 0.069304432 2.5621776)
(0.28997537 0.12402118 2.4837746)
(0.21057531 0.21057413 2.45835)
(0.12402239 0.289975 2.4837755)
(0.069305778 0.36648634 2.5621797)
(0.27258482 0.062662311 2.4458082)
(0.20506571 0.074106018 2.3832294)
(0.14947882 0.14947749 2.3668291)
(0.074107182 0.20506441 2.3832297)
(0.062663588 0.27258453 2.4458092)
(0.022308671 0.010589439 1.4689663)
(0.025206789 0.024862919 1.7091759)
(0.028769067 0.028767664 1.8009245)
(0.024864476 0.025205994 1.7091743)
(0.01059064 0.02230879 1.4689634)
(0.14545745 0.034588928 2.8399695)
(0.17415632 0.10018679 2.9857564)
(0.15053604 0.15053362 3.0095761)
(0.10019012 0.17415555 2.9857558)
(0.034591287 0.14545812 2.8399664)
(0.23488652 0.041696556 3.0750785)
(0.22454438 0.11545011 3.0244451)
(0.17841465 0.17841205 3.0043798)
(0.11545313 0.22454264 3.0244455)
(0.041699344 0.2348866 3.075079)
(0.24058084 0.034483063 3.0011095)
(0.20233352 0.097231842 2.9079084)
(0.15344109 0.15343871 2.8818682)
(0.09723407 0.20233085 2.9079079)
(0.034485146 0.24057915 3.0011097)
(0.19427312 0.027098466 2.8545394)
(0.14747905 0.062449541 2.775704)
(0.11166247 0.11166061 2.7555482)
(0.06245134 0.14747607 2.7757031)
(0.027099748 0.19426993 2.8545378)
(-0.0010799675 0.0041208032 1.1640003)
(-0.0021168008 0.0066473372 1.3416131)
(0.0016626897 0.0016631813 1.4140944)
(0.0066466214 -0.0021170068 1.3416106)
(0.0041200849 -0.0010805329 1.1639959)
(0.098736628 0.024119497 2.7745885)
(0.10391099 0.065441266 2.9689319)
(0.095333985 0.095332964 3.0287332)
(0.065442368 0.10390961 2.9689286)
(0.024120432 0.098735555 2.7745826)
(0.16116109 0.024906623 3.2551347)
(0.15890885 0.084606433 3.2491213)
(0.13046121 0.13045979 3.2391586)
(0.084607989 0.15890701 3.2491189)
(0.024907682 0.16115934 3.2551298)
(0.17891542 0.020108 3.2403222)
(0.15421052 0.076695828 3.1734133)
(0.1179028 0.11790181 3.1499583)
(0.076696915 0.15420874 3.1734111)
(0.020108494 0.17891319 3.2403182)
(0.15420307 0.014864175 3.1251081)
(0.10925189 0.050950519 3.0429269)
(0.082004301 0.08200393 3.0253205)
(0.050950946 0.10925057 3.0429253)
(0.014864019 0.15420065 3.1251043)
(-0.0035012433 -0.0013957343 1.0632476)
(-0.0041760689 -0.0023096034 1.2079216)
(-0.0039128682 -0.0039110357 1.2630691)
(-0.0023120724 -0.0041752803 1.2079219)
(-0.0013979959 -0.0035012922 1.0632473)
(0.047164963 0.0077934534 2.6606676)
(0.057328218 0.034325971 2.8937666)
(0.054890389 0.054891831 2.9713761)
(0.034323609 0.0573279 2.8937658)
(0.007790879 0.047163456 2.6606654)
(0.11268568 0.01330252 3.3391192)
(0.11942383 0.062092267 3.3787195)
(0.099827186 0.099827837 3.3795719)
(0.062091308 0.11942342 3.3787177)
(0.013300943 0.1126841 3.3391159)
(0.14712723 0.012355042 3.3994515)
(0.13051251 0.063708954 3.3467481)
(0.10158953 0.10159016 3.3281626)
(0.063708215 0.13051251 3.3467463)
(0.012353852 0.14712633 3.3994479)
(0.13962634 0.010574383 3.3082343)
(0.1016496 0.047098399 3.2293102)
(0.074067683 0.07406864 3.2083117)
(0.04709727 0.10165 3.2293093)
(0.010573201 0.13962574 3.3082312)
(-0.002133986 -0.0019081643 1.0220349)
(-0.0035384654 -0.0040266823 1.1560768)
(-0.0044842253 -0.0044826947 1.2045092)
(-0.0040287577 -0.0035373587 1.1560779)
(-0.0019100974 -0.0021335184 1.0220363)
(0.02145843 0.00087161347 2.5920616)
(0.02694197 0.014718667 2.8367758)
(0.026209632 0.02621179 2.9202636)
(0.014715655 0.026943145 2.8367766)
(0.00086841249 0.021458782 2.5920624)
(0.073541598 0.0055155459 3.3915601)
(0.083360174 0.043388433 3.4756138)
(0.072559184 0.072560388 3.4867546)
(0.043386999 0.083361159 3.4756132)
(0.0055133885 0.07354218 3.391559)
(0.11555314 0.0062314468 3.5310653)
(0.10801558 0.052914467 3.4870116)
(0.084709283 0.084709967 3.4693589)
(0.052913909 0.10801666 3.4870106)
(0.0062303918 0.11555436 3.531063)
(0.12219582 0.0065314836 3.4585496)
(0.094283479 0.044053579 3.3815697)
(0.068743982 0.068744384 3.3588356)
(0.044053146 0.094284409 3.3815692)
(0.0065309312 0.12219699 3.4585476)
(-0.00086579396 -0.00076249432 1.0003836)
(-0.0018738392 -0.0021404199 1.1322673)
(-0.0025499716 -0.0025491144 1.1792294)
(-0.0021419992 -0.0018729964 1.1322681)
(-0.00076401822 -0.00086544639 1.000385)
(0.011220351 -0.0006412527 2.5522252)
(0.012720695 0.0064168249 2.8014765)
(0.012069625 0.012071522 2.8869289)
(0.0064135664 0.01272211 2.8014775)
(-0.0006445854 0.011221031 2.5522268)
(0.047018107 0.0012871007 3.4288471)
(0.055704879 0.029420767 3.5524423)
(0.049966564 0.04996796 3.5756804)
(0.029418444 0.055705971 3.5524421)
(0.0012842422 0.047019018 3.4288468)
(0.086867726 0.0016219199 3.6461367)
(0.085284107 0.042657182 3.6154493)
(0.068193053 0.068193912 3.5981345)
(0.042656025 0.085285337 3.6154482)
(0.0016202551 0.086869288 3.6461346)
(0.10101478 0.0026394957 3.5936388)
(0.081885065 0.039300591 3.518755)
(0.060028914 0.06002942 3.4948334)
(0.03929982 0.081886188 3.5187543)
(0.0026384402 0.10101645 3.5936367)
(-0.00032462932 -3.1360929e-05 0.98811148)
(-0.00072306349 -0.00061379636 1.1200689)
(-0.00094212212 -0.0009416139 1.1670072)
(-0.00061485541 -0.00072251577 1.1200695)
(-3.23657e-05 -0.00032445714 0.98811269)
(0.007223777 -0.00060369342 2.5311286)
(0.0073614975 0.0035953805 2.7835741)
(0.0066674489 0.0066689521 2.869853)
(0.003592502 0.0073627568 2.7835749)
(-0.00060654169 0.0072244436 2.5311304)
(0.031550008 -0.00060602148 3.4592491)
(0.03796639 0.020095889 3.6159065)
(0.034728324 0.034729803 3.6505631)
(0.020093169 0.037967504 3.6159064)
(-0.000608931 0.031551163 3.4592495)
(0.065401169 -0.0010745034 3.7474631)
(0.067051022 0.033893714 3.7345785)
(0.054459316 0.054460423 3.7189787)
(0.033892098 0.067052382 3.7345776)
(-0.0010762888 0.065403024 3.7474617)
(0.08254174 0.00021548119 3.7173467)
(0.069733152 0.034056412 3.6472447)
(0.051090596 0.051091352 3.6224292)
(0.03405538 0.069734505 3.6472439)
(0.00021431852 0.082543771 3.717345)
(-9.3643332e-05 0.00014938902 0.98055479)
(-0.00019786783 -7.1342481e-05 1.1120429)
(-0.00024485962 -0.00024446184 1.1589097)
(-7.1978908e-05 -0.00019746894 1.1120433)
(0.00014893063 -9.3630023e-05 0.98055579)
(0.0053965758 -0.00041397306 2.5215674)
(0.0054995238 0.0026349485 2.7755457)
(0.0047988025 0.0048001152 2.8621097)
(0.0026324198 0.0055005554 2.7755463)
(-0.00041601805 0.005396857 2.5215689)
(0.022867177 -0.0012526625 3.4871437)
(0.027567248 0.014408563 3.66922)
(0.025367446 0.025368905 3.7136859)
(0.014405683 0.027568058 3.6692199)
(-0.0012552638 0.022867852 3.487144)
(0.051187875 -0.0022520446 3.8373822)
(0.054445683 0.02749218 3.8439852)
(0.044724437 0.044725718 3.831098)
(0.027490232 0.054446743 3.8439843)
(-0.002253953 0.05118918 3.837381)
(0.068785508 -0.00067968129 3.8310977)
(0.060872926 0.029770144 3.7667796)
(0.044580107 0.044581173 3.7412167)
(0.02976881 0.0608742 3.7667786)
(-0.00068113676 0.068787148 3.8310959)
(1.3226214e-05 0.00019203087 0.97507431)
(2.9004017e-05 0.00016539322 1.1063443)
(2.3368758e-05 2.3511257e-05 1.1530805)
(0.00016514873 2.9109977e-05 1.106345)
(0.00019200746 1.3183275e-05 0.97507552)
(0.0043895762 -0.00035916196 2.5177617)
(0.0043266671 0.0020859236 2.7750563)
(0.0037565652 0.0037574972 2.8622329)
(0.0020843215 0.0043271859 2.7750573)
(-0.00036043881 0.0043895404 2.5177637)
(0.017696994 -0.0014896099 3.5135183)
(0.021102976 0.010705813 3.7160064)
(0.019313145 0.019314665 3.7688383)
(0.010702955 0.021103498 3.7160068)
(-0.0014918436 0.017697032 3.5135194)
(0.041104162 -0.0026115213 3.9176338)
(0.045516522 0.02273343 3.944898)
(0.037753591 0.037755266 3.9355408)
(0.022730891 0.045517316 3.9448976)
(-0.002613685 0.041104556 3.9176333)
(0.059247264 -0.00075603872 3.9378552)
(0.0545538 0.026475093 3.879348)
(0.040133896 0.040135662 3.8530773)
(0.026472904 0.054555103 3.8793472)
(-0.00075805565 0.059248223 3.9378539)
(5.2773267e-05 0.00017430055 0.97101647)
(2.9748047e-05 0.00015747242 1.1016446)
(2.7276927e-05 2.7030168e-05 1.1482418)
(0.00015770974 2.9613075e-05 1.1016455)
(0.00017480469 5.2707397e-05 0.97101775)
(0.0034233353 -0.00022134374 2.5176309)
(0.0037759651 0.0018858551 2.7763747)
(0.0032086655 0.0032091357 2.8643589)
(0.0018848669 0.0037761273 2.776376)
(-0.00022137573 0.0034232295 2.5176332)
(0.013985437 -0.0014190715 3.5388094)
(0.016703456 0.0083147192 3.7573489)
(0.015125439 0.015126556 3.8172723)
(0.008312502 0.016703608 3.7573497)
(-0.001420342 0.013985166 3.538811)
(0.033486497 -0.0026081019 3.989659)
(0.038494192 0.019016601 4.0377447)
(0.032251558 0.032253042 4.0327098)
(0.019014248 0.03849453 4.0377448)
(-0.0026098306 0.033486268 3.9896592)
(0.051453166 -0.00066234319 4.0378577)
(0.049350425 0.023711149 3.984881)
(0.036615152 0.0366169 3.9583439)
(0.023708938 0.049351352 3.9848806)
(-0.00066422403 0.051453444 4.037857)
(2.3487211e-05 9.0256775e-05 0.96789129)
(-1.4358173e-05 9.3719469e-05 1.0980444)
(-6.9565305e-06 -7.607661e-06 1.1446384)
(9.4459908e-05 -1.4768305e-05 1.0980455)
(9.1212306e-05 2.3388332e-05 0.96789274)
(0.0027777045 -0.0002589882 2.5188502)
(0.0030181263 0.0015063556 2.7797609)
(0.0025129364 0.0025127934 2.8690715)
(0.0015062351 0.0030178849 2.7797629)
(-0.00025824534 0.0027775111 2.5188529)
(0.011101824 -0.0013922098 3.5630785)
(0.013295212 0.0064383352 3.7950122)
(0.011857409 0.011858045 3.8610646)
(0.006436846 0.013295013 3.7950137)
(-0.0013926178 0.011101236 3.563081)
(0.027330105 -0.0025408792 4.0554215)
(0.032474099 0.015813744 4.1240549)
(0.027439438 0.027440666 4.1240064)
(0.015811579 0.032474004 4.1240557)
(-0.0025421791 0.027329238 4.0554228)
(0.044539608 -0.0006244952 4.1325362)
(0.044344117 0.021107889 4.0857347)
(0.03325655 0.033258298 4.0596157)
(0.021105529 0.044344687 4.085735)
(-0.00062625126 0.044539172 4.1325364)
(6.5563036e-06 3.3003631e-05 0.96571051)
(-2.9264375e-05 7.2885896e-05 1.0956017)
(-1.4382437e-05 -1.5612279e-05 1.1422191)
(7.4359993e-05 -3.005468e-05 1.0956028)
(3.459311e-05 6.4870319e-06 0.96571193)
(0.0020929947 -0.00035200123 2.5217591)
(0.0022578859 0.0010870597 2.7852048)
(0.0018667503 0.0018656428 2.8756777)
(0.0010885041 0.0022572112 2.785207)
(-0.00034989164 0.0020929986 2.5217621)
(0.0087450703 -0.0014118206 3.5866667)
(0.010503221 0.0048931757 3.8301187)
(0.0092279718 0.0092276394 3.9014022)
(0.0048933328 0.010502823 3.8301206)
(-0.0014106559 0.0087448079 3.5866698)
(0.022230486 -0.0025096744 4.1159933)
(0.02711432 0.012948591 4.2042598)
(0.02310494 0.023105175 4.2097017)
(0.012947803 0.02711388 4.2042612)
(-0.0025095332 0.022229787 4.1159955)
(0.038329931 -0.00068134743 4.2219327)
(0.039574739 0.018659783 4.1819472)
(0.029986337 0.029987002 4.1565599)
(0.018658681 0.039574684 4.1819481)
(-0.00068172531 0.038329347 4.2219341)
(3.7964965e-06 1.7488802e-05 0.964377)
(-4.6033203e-05 8.0391489e-05 1.0941055)
(-1.878784e-05 -2.0600767e-05 1.1407959)
(8.260311e-05 -4.7233719e-05 1.0941065)
(1.9684167e-05 3.696005e-06 0.96437802)
(0.0015334299 -0.00038620085 2.5261903)
(0.0016535925 0.00079794019 2.7918314)
(0.001356532 0.001354339 2.8835089)
(0.00080108135 0.0016524131 2.7918335)
(-0.00038260148 0.0015336396 2.5261928)
(0.0068440718 -0.0013947815 3.6099636)
(0.0082966974 0.0037115847 3.8634596)
(0.0071825988 0.0071811106 3.9393115)
(0.0037136566 0.0082960628 3.8634617)
(-0.0013919029 0.006844174 3.6099668)
(0.018058977 -0.0024346999 4.172673)
(0.022635336 0.010578853 4.2795509)
(0.019378086 0.019377129 4.2907091)
(0.010579743 0.022634544 4.2795527)
(-0.0024329015 0.018058572 4.1726758)
(0.032841269 -0.00074999098 4.3071352)
(0.035020404 0.0163848 4.2750603)
(0.026868989 0.026868378 4.2505418)
(0.016385218 0.035019681 4.2750618)
(-0.00074873328 0.032840657 4.3071374)
(1.0729822e-07 1.3259349e-05 0.96365972)
(-5.7685927e-05 8.5174104e-05 1.0933414)
(-1.9428922e-05 -2.1727008e-05 1.1401153)
(8.8066763e-05 -5.9267681e-05 1.093342)
(1.5983193e-05 -2.1546698e-08 0.96365982)
(0.0011104956 -0.00037946218 2.5314742)
(0.001182505 0.00058844449 2.7992986)
(0.00096754928 0.00096421585 2.8921352)
(0.00059345645 0.0011808261 2.7992999)
(-0.0003743398 0.0011109582 2.5314752)
(0.0053659995 -0.0013212118 3.6327337)
(0.0065989308 0.0028422388 3.895214)
(0.0056347952 0.0056318884 3.9751139)
(0.0028467211 0.0065981281 3.8952156)
(-0.0013163465 0.0053667434 3.6327359)
(0.014732655 -0.0023185152 4.2257151)
(0.018808986 0.0085751083 4.3498627)
(0.016220419 0.016217819 4.366898)
(0.0085784333 0.0188079 4.3498646)
(-0.0023145397 0.014733011 4.2257177)
(0.028160373 -0.00080625429 4.3877661)
(0.031117787 0.014441403 4.3647013)
(0.024099531 0.024096954 4.3409824)
(0.014444275 0.031116257 4.3647031)
(-0.00080265081 0.028160131 4.3877686)
(-7.5629312e-06 9.4007342e-06 0.96348178)
(-7.0662097e-05 7.9969598e-05 1.0932015)
(-2.3205021e-05 -2.5799992e-05 1.1400747)
(8.3228109e-05 -7.2552946e-05 1.0932014)
(1.2287156e-05 -7.7446176e-06 0.96348048)
(0.00076116909 -0.00036493858 2.5375514)
(0.00079841783 0.00041206935 2.8075173)
(0.00065541999 0.00065119932 2.9014412)
(0.00041861916 0.0007962496 2.8075174)
(-0.00035876344 0.00076157869 2.5375501)
(0.0041692005 -0.0012360697 3.6552113)
(0.0052472043 0.0021661602 3.9258677)
(0.0044246927 0.0044205129 4.0094056)
(0.0021728128 0.0052461687 3.9258684)
(-0.001229643 0.0041701904 3.6552116)
(0.012033052 -0.0021899436 4.2760006)
(0.015671376 0.0069514407 4.4161734)
(0.013609565 0.013605469 4.439118)
(0.006956994 0.015669995 4.416175)
(-0.0021841937 0.012033932 4.2760023)
(0.024147682 -0.00085631017 4.4648715)
(0.027589633 0.012707333 4.4519263)
(0.021543756 0.021539448 4.4290164)
(0.012712407 0.027587391 4.451928)
(-0.00085076996 0.02414775 4.4648738)
(-7.5711796e-06 8.8059032e-06 0.96364532)
(-7.3931493e-05 7.9128552e-05 1.0934088)
(-2.1253129e-05 -2.3811869e-05 1.1403408)
(8.232646e-05 -7.5809462e-05 1.0934082)
(1.1486768e-05 -7.7698897e-06 0.96364297)
(0.00048488122 -0.00034466625 2.544127)
(0.00049245282 0.00027362374 2.8161464)
(0.00040706599 0.0004023043 2.9110805)
(0.00028107388 0.00048993069 2.8161453)
(-0.00033814549 0.00048519756 2.5441231)
(0.0031836877 -0.00115168 3.6772024)
(0.0041358547 0.0016304917 3.9553292)
(0.0034548756 0.0034496856 4.0421893)
(0.0016389139 0.0041346178 3.9553284)
(-0.001144221 0.0031847699 3.6771999)
(0.0097977724 -0.0020675226 4.3235618)
(0.013057282 0.0056065012 4.4785059)
(0.011328844 0.01132345 4.5072014)
(0.0056140407 0.013055649 4.4785066)
(-0.0020604012 0.0097990245 4.3235615)
(0.020684089 -0.00090607107 4.5380541)
(0.024404838 0.011131878 4.5357816)
(0.019292189 0.01928628 4.5140837)
(0.011138984 0.024401988 4.5357827)
(-0.0008989995 0.020684429 4.5380552)
(-1.7005226e-06 7.9983144e-06 0.96413982)
(-7.078012e-05 7.8234114e-05 1.0939936)
(-1.4841376e-05 -1.72454e-05 1.1410219)
(8.0858791e-05 -7.2494926e-05 1.0939919)
(9.8361005e-06 -1.8707462e-06 0.96413608)
(0.00025159927 -0.00032833539 2.5511794)
(0.00022842144 0.00015108287 2.8251875)
(0.0001903715 0.00018518365 2.9210824)
(0.00015827297 0.0002255144 2.8251849)
(-0.00032276502 0.00025177824 2.5511728)
(0.0023376533 -0.0010804989 3.6989304)
(0.0031784511 0.0011795659 3.9839891)
(0.002636933 0.0026310729 4.0739284)
(0.0011884371 0.0031765573 3.983987)
(-0.0010732534 0.0023385555 3.6989251)
(0.0078943628 -0.0019604996 4.3691389)
(0.010823524 0.0044700146 4.5378592)
(0.0093805027 0.0093743929 4.5720342)
(0.0044784515 0.010821513 4.5378588)
(-0.0019530692 0.0078956296 4.3691364)
(0.017624755 -0.0009722718 4.6083688)
(0.021490278 0.0097005067 4.6174793)
(0.017187776 0.017181066 4.5975866)
(0.0097085803 0.021487064 4.6174797)
(-0.00096470928 0.017625142 4.6083683)
(8.3755192e-06 8.7990146e-06 0.96494046)
(-6.4419421e-05 7.8707825e-05 1.0949256)
(-5.7941455e-06 -7.2144355e-06 1.1420501)
(8.0313393e-05 -6.5578311e-05 1.094923)
(9.7402429e-06 8.1672253e-06 0.96493595)
(6.3146955e-05 -0.00031178633 2.5585569)
(7.3577223e-06 4.7478323e-05 2.834483)
(1.060782e-05 6.0970088e-06 2.9312872)
(5.3503537e-05 4.6913118e-06 2.8344786)
(-0.0003076425 6.2905844e-05 2.5585482)
(0.0016177565 -0.0010176102 3.720213)
(0.0023464493 0.00079728026 4.0116957)
(0.0019356045 0.001929862 4.1044827)
(0.00080565812 0.0023443462 4.0116918)
(-0.0010113701 0.0016182445 3.720205)
(0.0062688505 -0.001862645 4.412593)
(0.0089008936 0.0035139093 4.5940735)
(0.007710696 0.0077045306 4.6333887)
(0.0035223564 0.0088987722 4.5940718)
(-0.0018557735 0.0062699552 4.412588)
(0.014951008 -0.0010285651 4.6753368)
(0.018836212 0.008403747 4.6960125)
(0.015235892 0.01522906 4.6782752)
(0.0084119772 0.018832954 4.6960117)
(-0.0010214247 0.014951402 4.6753344)
(-3.6615275e-06 6.3533066e-06 0.96596286)
(-7.5254508e-05 6.7930993e-05 1.0960997)
(-1.7838726e-05 -1.7796563e-05 1.1433199)
(6.8240968e-05 -7.5508802e-05 1.0960968)
(6.5667625e-06 -3.6971291e-06 0.96595812)
(-0.00011439224 -0.00029825741 2.5662417)
(-0.0001987936 -4.7811752e-05 2.8440498)
(-0.00015897022 -0.0001617671 2.9417186)
(-4.368377e-05 -0.00020059819 2.8440445)
(-0.00029580727 -0.00011492301 2.566232)
(0.00099661177 -0.00096070511 3.7412628)
(0.001622745 0.00047017706 4.0388024)
(0.0013310835 0.0013264391 4.134257)
(0.00047706838 0.0016208757 4.0387974)
(-0.00095620635 0.00099622459 3.741253)
(0.0048732972 -0.0017674878 4.4545648)
(0.0072347018 0.0027027997 4.6480613)
(0.006267891 0.0062625975 4.6922573)
(0.0027101063 0.007232773 4.6480584)
(-0.0017621472 0.0048736813 4.4545578)
(0.0125655 -0.0010696416 4.7399737)
(0.016408103 0.0072314831 4.7726499)
(0.0134215 0.013415604 4.7575314)
(0.0072385919 0.016405273 4.772648)
(-0.0010640503 0.012565586 4.7399694)
(-2.803317e-05 4.2135297e-06 0.96716214)
(-8.7054452e-05 5.7834649e-05 1.0974651)
(-3.3258028e-05 -3.1849458e-05 1.1447778)
(5.6446402e-05 -8.638548e-05 1.0974623)
(2.7582635e-06 -2.8025845e-05 0.96715793)
(-0.00026203904 -0.00028757601 2.5741169)
(-0.00037627835 -0.00013785635 2.8537174)
(-0.00031098953 -0.00031165448 2.9522008)
(-0.00013680342 -0.00037697026 2.8537117)
(-0.00028795546 -0.00026248585 2.5741074)
(0.00049768726 -0.00089427215 3.7618789)
(0.0010013133 0.00020408269 4.0650781)
(0.00081717984 0.00081431333 4.1630197)
(0.00020827776 0.00099994312 4.0650723)
(-0.00089236313 0.00049726184 3.7618684)
(0.0036766796 -0.0016706441 4.4947766)
(0.0057964431 0.0020281941 4.6994872)
(0.0050337804 0.0050300256 4.7482536)
(0.0020334223 0.0057949918 4.6994832)
(-0.0016675798 0.0036767038 4.4947681)
(0.010478859 -0.0010909067 4.8016846)
(0.014212629 0.0061860259 4.8462597)
(0.011757661 0.011753361 4.8339837)
(0.0061912358 0.014210542 4.8462567)
(-0.0010876482 0.010478723 4.8016786)
(-3.633648e-05 6.2499914e-06 0.96853001)
(-9.499232e-05 5.0946909e-05 1.0990279)
(-4.4579173e-05 -4.1772204e-05 1.1464364)
(4.8210717e-05 -9.3560878e-05 1.0990255)
(3.8290228e-06 -3.6320191e-05 0.96852703)
(-0.00041940898 -0.00027837066 2.5822041)
(-0.00053587205 -0.00020819232 2.8635837)
(-0.00044027961 -0.00043833166 2.9628539)
(-0.00021020965 -0.0005353347 2.8635783)
(-0.00028122399 -0.00042038989 2.5821963)
(3.11755e-05 -0.00085563776 3.7822746)
(0.00045928124 -4.0290094e-05 4.0908853)
(0.00037010056 0.00036967047 4.1911726)
(-3.9374728e-05 0.00045869593 4.0908794)
(-0.00085671305 2.9798411e-05 3.7822648)
(0.0026431621 -0.0015868585 4.5338486)
(0.0045366817 0.0014409822 4.7492188)
(0.0039536592 0.0039521482 4.8023407)
(0.0014432321 0.0045359395 4.7492142)
(-0.0015867377 0.0026422739 4.5338397)
(0.0086399573 -0.0011060375 4.8615743)
(0.012213298 0.0052385631 4.9182172)
(0.010219433 0.010217536 4.9091286)
(0.005240827 0.012212325 4.9182132)
(-0.0011058321 0.0086393724 4.8615671)
(-4.2401073e-05 8.1266925e-06 0.97001674)
(-9.8467117e-05 4.5046866e-05 1.1007215)
(-4.9804409e-05 -4.5860158e-05 1.1482267)
(4.1165888e-05 -9.6355248e-05 1.1007199)
(4.9058757e-06 -4.2263086e-05 0.97001511)
(-0.00054695823 -0.00026667009 2.5903523)
(-0.00066931347 -0.00026794136 2.8734623)
(-0.00055253192 -0.00054795965 2.9734867)
(-0.0002728924 -0.00066735679 2.8734577)
(-0.00027177392 -0.00054804536 2.5903471)
(-0.0003659349 -0.00081479415 3.8022294)
(-1.4353203e-05 -0.00024595604 4.1159452)
(-1.9207026e-05 -1.6994179e-05 4.2184414)
(-0.00024848563 -1.3776603e-05 4.1159396)
(-0.00081874837 -0.00036775351 3.8022218)
(0.0017468528 -0.0015028985 4.5714171)
(0.0034354887 0.00094611978 4.7967963)
(0.003021345 0.003022296 4.8540007)
(0.00094511803 0.0034356319 4.7967914)
(-0.0015056944 0.001745368 4.571409)
(0.0070126361 -0.0011158738 4.9189197)
(0.010407621 0.0043905166 4.9872973)
(0.0088107664 0.0088114668 4.9814913)
(0.0043896363 0.010407815 4.9872927)
(-0.0011187957 0.007011684 4.9189121)
(-4.8146104e-05 1.0084371e-05 0.97163446)
(-0.0001013843 3.8610158e-05 1.1025591)
(-5.4591407e-05 -4.9924497e-05 1.1501598)
(3.4015761e-05 -9.8832927e-05 1.1025583)
(6.4056987e-06 -4.791475e-05 0.97163448)
(-0.00065263582 -0.00025467879 2.5986599)
(-0.0007844564 -0.00032346248 2.8834644)
(-0.00065027767 -0.00064350035 2.9842056)
(-0.00033089916 -0.00078126217 2.8834612)
(-0.00026159928 -0.00065365501 2.5986578)
(-0.00071043724 -0.00077689173 3.8220195)
(-0.00043241847 -0.0004298419 4.1406254)
(-0.00036918619 -0.00036439391 4.2452008)
(-0.00043566792 -0.00043076749 4.140621)
(-0.00078362389 -0.00071282949 3.8220148)
(0.00095349324 -0.0014290903 4.6081132)
(0.002453493 0.0005173672 4.8430687)
(0.0021929186 0.0021964383 4.9041944)
(0.00051289097 0.0024545074 4.8430642)
(-0.0014349941 0.00095104608 4.6081066)
(0.0055512575 -0.0011277508 4.9748441)
(0.0087554012 0.0036230933 5.0549903)
(0.0075114703 0.0075149524 5.0527092)
(0.0036186285 0.0087568465 5.0549855)
(-0.0011338443 0.0055497869 4.9748369)
(-5.2132544e-05 1.2814635e-05 0.97332752)
(-0.00010281673 3.426771e-05 1.1044828)
(-5.7047831e-05 -5.2055241e-05 1.1521853)
(2.9486666e-05 -0.00010021506 1.104483)
(9.1613527e-06 -5.1750923e-05 0.97332898)
(-0.00073701234 -0.00024032423 2.6069611)
(-0.00088133841 -0.00036736053 2.8934186)
(-0.0007316734 -0.00072314177 2.9948698)
(-0.00037626367 -0.00087715401 2.8934168)
(-0.00024816348 -0.00073796711 2.6069624)
(-0.0010180933 -0.00074206227 3.8413539)
(-0.00080372267 -0.00058450821 4.1646136)
(-0.0006694959 -0.00066253874 4.2711957)
(-0.00059290475 -0.00080085683 4.1646102)
(-0.00075074748 -0.0010207578 3.8413532)
(0.00024453023 -0.0013657919 4.6434765)
(0.0015890249 0.00014438137 4.8874775)
(0.0014708371 0.0014765569 4.952282)
(0.00013695419 0.0015909605 4.8874737)
(-0.0013739037 0.00024174015 4.6434728)
(0.0042513832 -0.0011369482 5.0284954)
(0.0072670991 0.0029308494 5.1199561)
(0.0063196144 0.0063254084 5.12119)
(0.0029235663 0.0072695404 5.1199514)
(-0.0011453759 0.0042497784 5.0284892)
(-5.6887515e-05 1.4498319e-05 0.97511722)
(-0.00010382523 2.7416459e-05 1.1065121)
(-5.8757597e-05 -5.3987566e-05 1.1543093)
(2.2957885e-05 -0.00010138049 1.1065132)
(1.1094064e-05 -5.6453714e-05 0.97511972)
(-0.00080947406 -0.0002282918 2.6153706)
(-0.00096381565 -0.00041160604 2.903449)
(-0.00079749711 -0.0007879559 3.0055603)
(-0.00042091532 -0.00095901342 2.9034487)
(-0.00023650724 -0.00081043692 2.6153746)
(-0.0012869375 -0.0007107102 3.8605415)
(-0.0011312481 -0.00072867758 4.1882966)
(-0.00095274505 -0.00094417516 4.2967345)
(-0.0007385874 -0.0011272523 4.1882948)
(-0.00072069296 -0.0012896543 3.8605445)
(-0.00039160686 -0.0013131065 4.6781738)
(0.00080482092 -0.00018113949 4.9308724)
(0.00081506387 0.00082250463 4.9992545)
(-0.00019061499 0.00080740126 4.9308697)
(-0.0013231318 -0.00039510637 4.6781727)
(0.0030788606 -0.001147167 5.0810432)
(0.0059035738 0.0023068024 5.1838053)
(0.0052312324 0.0052388706 5.1887208)
(0.0022968651 0.0059068663 5.1838011)
(-0.001157674 0.0030764539 5.0810389)
(-6.1107461e-05 1.6286068e-05 0.97695403)
(-0.00010511164 2.2309939e-05 1.1086002)
(-6.2020549e-05 -5.8174783e-05 1.1564944)
(1.8505411e-05 -0.00010284432 1.1086018)
(1.3273097e-05 -6.074657e-05 0.97695764)
(-0.0008700042 -0.00021549178 2.6237299)
(-0.0010347895 -0.00044587569 2.9134064)
(-0.00085599964 -0.00084684173 3.01616)
(-0.00045497941 -0.0010296429 2.9134075)
(-0.00022363008 -0.00087094804 2.6237368)
(-0.0015081735 -0.00067537328 3.8792781)
(-0.0014104152 -0.00084183236 4.2113709)
(-0.0011801476 -0.0011710357 4.3215983)
(-0.00085271293 -0.0014057044 4.2113707)
(-0.00068598173 -0.0015108539 3.8792852)
(-0.00095867471 -0.0012646366 4.711658)
(0.00011962131 -0.00046199551 4.9725942)
(0.00024437353 0.00025256935 5.044335)
(-0.00047305138 0.00012284518 4.9725923)
(-0.0012749119 -0.00096092062 4.7116608)
(0.0020172014 -0.0011665495 5.1315268)
(0.004674617 0.0017352867 5.2450622)
(0.004227723 0.0042362374 5.2535744)
(0.0017243404 0.0046781293 5.2450587)
(-0.0011769831 0.0020157819 5.1315245)
(-6.5442948e-05 1.5366843e-05 0.97886915)
(-0.00010523659 1.601888e-05 1.1107694)
(-6.3987222e-05 -6.1416523e-05 1.1587649)
(1.3155785e-05 -0.00010343023 1.1107708)
(1.3057037e-05 -6.5104707e-05 0.97887351)
(-0.00093294307 -0.0002112254 2.6321758)
(-0.0010972752 -0.0004795573 2.9234148)
(-0.00090690927 -0.00089915636 3.0268094)
(-0.00048758807 -0.0010920823 2.9234161)
(-0.00021851614 -0.00093332246 2.6321851)
(-0.0017170482 -0.00065520428 3.897906)
(-0.0016562039 -0.00094639901 4.2341849)
(-0.0013793531 -0.0013708173 4.3461762)
(-0.00095726885 -0.0016513151 4.2341858)
(-0.00066549323 -0.0017187235 3.8979165)
(-0.0014261738 -0.0012103233 4.7446468)
(-0.0004947153 -0.00072277834 5.0135144)
(-0.00026567535 -0.00025741587 5.0885337)
(-0.00073442232 -0.00049143432 5.0135142)
(-0.0012206649 -0.0014279333 4.7446531)
(0.0010888584 -0.0011402666 5.1811505)
(0.0035424673 0.0012346544 5.3054559)
(0.0033055401 0.0033141174 5.3176831)
(0.0012230623 0.0035460246 5.3054532)
(-0.0011506184 0.0010876769 5.1811502)
(-6.741394e-05 1.5668345e-05 0.98081797)
(-0.00010423206 1.1159961e-05 1.1129749)
(-6.5096023e-05 -6.3677872e-05 1.1610696)
(9.3107652e-06 -0.00010322517 1.1129761)
(1.4447014e-05 -6.7184323e-05 0.98082251)
(-0.00098170026 -0.00020466729 2.6405609)
(-0.0011473947 -0.0005074379 2.9333213)
(-0.00094972459 -0.00094365224 3.0373278)
(-0.0005141348 -0.0011432387 2.9333227)
(-0.0002101156 -0.00098174177 2.6405712)
(-0.0018980514 -0.00063419143 3.9161268)
(-0.0018731629 -0.0010379842 4.2564034)
(-0.0015561605 -0.0015485737 4.3700562)
(-0.001047855 -0.0018682943 4.2564043)
(-0.00064276999 -0.0018987411 3.916139)
(-0.0018424998 -0.0011598398 4.7765625)
(-0.0010397568 -0.00094948635 5.0529381)
(-0.00072220796 -0.00071471473 5.1310083)
(-0.00096050371 -0.00103643 5.0529379)
(-0.0011690221 -0.0018433228 4.7765707)
(0.00025840142 -0.0011117613 5.2288325)
(0.0025188096 0.00079127751 5.3633515)
(0.0024621152 0.0024700855 5.3791624)
(0.00078021229 0.0025220933 5.3633497)
(-0.0011208604 0.00025780834 5.2288339)
(-6.9644001e-05 1.5864024e-05 0.9828216)
(-0.00010520083 7.2613215e-06 1.1152355)
(-6.6981412e-05 -6.6524934e-05 1.1634392)
(6.5809776e-06 -0.00010495433 1.1152373)
(1.5835843e-05 -6.9506977e-05 0.9828259)
(-0.0010229084 -0.00019924719 2.6489958)
(-0.0011894793 -0.00052826911 2.9432391)
(-0.0009875613 -0.00098302427 3.0478734)
(-0.00053327333 -0.0011869289 2.9432421)
(-0.00020223355 -0.0010225953 2.6490062)
(-0.0020543416 -0.00061713458 3.9342397)
(-0.0020595745 -0.0011121384 4.2783726)
(-0.0017117651 -0.0017048768 4.3936898)
(-0.0011203441 -0.0020553751 4.278375)
(-0.00062311821 -0.0020544674 3.9342528)
(-0.0022217699 -0.0011251598 4.8080689)
(-0.0015576001 -0.0011701718 5.0917329)
(-0.0011362043 -0.0011292669 5.1728554)
(-0.001179107 -0.0015534609 5.0917343)
(-0.0011322129 -0.0022220404 4.8080787)
(-0.00051001593 -0.0010823808 5.2758835)
(0.0015667391 0.00037997628 5.4206552)
(0.0016878557 0.001694287 5.4401275)
(0.00037065691 0.0015701656 5.420654)
(-0.0010897934 -0.00050991743 5.2758865)
(-7.2416908e-05 1.8883337e-05 0.98484393)
(-0.00010847665 2.3492588e-06 1.117523)
(-6.8937503e-05 -6.9729696e-05 1.1658286)
(2.9740738e-06 -0.00010876711 1.1175248)
(1.9741573e-05 -7.2388075e-05 0.98484747)
(-0.0010608576 -0.00018835641 2.657345)
(-0.0012402323 -0.00055452614 2.9530457)
(-0.0010225073 -0.0010202137 3.0582669)
(-0.00055697703 -0.0012386098 2.9530494)
(-0.00018917159 -0.0010602754 2.6573541)