/*--------------------------------*- C++ -*----------------------------------*\
| =========                 |                                                 |
| \\      /  F ield         | OpenFOAM: The Open Source CFD Toolbox           |
|  \\    /   O peration     | Version:  2.3.x                                 |
|   \\  /    A nd           | Web:      www.OpenFOAM.org                      |
|    \\/     M anipulation  |                                                 |
\*---------------------------------------------------------------------------*/
FoamFile
{
    version     2.0;
    format      ascii;
    class       volScalarField;
    location    "0.03";
    object      C;
}
// * * * * * * * * * * * * * * * * * * * * * * * * * * * * * * * * * * * * * //

dimensions      [0 -3 0 0 1 0 0];

internalField   nonuniform List<scalar> 
10000
(
1.6361435e-05
1.748185e-05
1.7723574e-05
1.7481851e-05
1.6361437e-05
1.9541804e-05
2.0038538e-05
2.0170607e-05
2.0038536e-05
1.9541802e-05
2.0789005e-05
2.100211e-05
2.1055808e-05
2.10021e-05
2.0788991e-05
2.1169966e-05
2.124031e-05
2.1254268e-05
2.1240308e-05
2.1169962e-05
2.1270909e-05
2.1288723e-05
2.1291106e-05
2.1288723e-05
2.1270909e-05
1.909663e-06
3.1488267e-06
3.8617154e-06
3.1488232e-06
1.9096597e-06
1.0593267e-05
1.2708475e-05
1.352575e-05
1.2708468e-05
1.0593253e-05
1.7787019e-05
1.9306764e-05
1.9691983e-05
1.9306717e-05
1.7786958e-05
2.0459361e-05
2.0910756e-05
2.1002532e-05
2.0910762e-05
2.0459365e-05
2.110937e-05
2.123377e-05
2.1251046e-05
2.1233773e-05
2.1109392e-05
2.5733727e-07
3.6173022e-07
4.2877966e-07
3.617303e-07
2.5733729e-07
6.2657857e-06
8.0147799e-06
8.6522342e-06
8.0147745e-06
6.2657795e-06
1.4125672e-05
1.6234766e-05
1.6950345e-05
1.6234805e-05
1.412571e-05
1.8957786e-05
2.0148289e-05
2.0415899e-05
2.014833e-05
1.895784e-05
2.0740958e-05
2.1104244e-05
2.1156355e-05
2.1104253e-05
2.0741039e-05
9.8553134e-08
1.2910873e-07
1.392252e-07
1.2910926e-07
9.8554203e-08
3.416179e-06
5.2464851e-06
5.9098635e-06
5.2465022e-06
3.4162109e-06
1.1103657e-05
1.3589014e-05
1.4408933e-05
1.3589054e-05
1.1103712e-05
1.7104279e-05
1.8970871e-05
1.943531e-05
1.8970907e-05
1.7104353e-05
2.0049427e-05
2.0837676e-05
2.0960741e-05
2.0837693e-05
2.0049474e-05
4.8490132e-08
7.2573786e-08
8.1507423e-08
7.2574121e-08
4.8490691e-08
1.8063219e-06
3.2686752e-06
3.9206365e-06
3.2686909e-06
1.806342e-06
8.7481589e-06
1.1284385e-05
1.2204169e-05
1.1284411e-05
8.7482042e-06
1.5233419e-05
1.7596625e-05
1.8255365e-05
1.7596637e-05
1.5233455e-05
1.9133589e-05
2.0399456e-05
2.0632541e-05
2.0399448e-05
1.9133577e-05
2.6048951e-08
4.1254445e-08
4.8624236e-08
4.1254625e-08
2.6049249e-08
1.0118109e-06
1.9398269e-06
2.445559e-06
1.9398356e-06
1.011822e-06
7.0324769e-06
9.418636e-06
1.0323318e-05
9.4186546e-06
7.0325141e-06
1.3556851e-05
1.6198532e-05
1.7004566e-05
1.6198554e-05
1.3556891e-05
1.8101776e-05
1.9825521e-05
2.018611e-05
1.9825544e-05
1.8101799e-05
1.5822364e-08
2.4142075e-08
2.8743038e-08
2.4142119e-08
1.5822481e-08
6.3515313e-07
1.1755251e-06
1.4960671e-06
1.1755277e-06
6.3515783e-07
5.7445913e-06
7.9660397e-06
8.813812e-06
7.9660511e-06
5.7446186e-06
1.2125823e-05
1.4881209e-05
1.5787085e-05
1.4881219e-05
1.2125843e-05
1.7055602e-05
1.9168479e-05
1.9662593e-05
1.9168496e-05
1.7055611e-05
1.0617574e-08
1.5340802e-08
1.7899362e-08
1.5340758e-08
1.0617579e-08
4.3716527e-07
7.6998657e-07
9.6034701e-07
7.6998492e-07
4.3716569e-07
4.7222388e-06
6.8187343e-06
7.6098648e-06
6.8187361e-06
4.7222482e-06
1.0911573e-05
1.3683991e-05
1.4644069e-05
1.3683988e-05
1.0911575e-05
1.6047012e-05
1.8464769e-05
1.9086611e-05
1.846478e-05
1.6047014e-05
7.5366806e-09
1.0606789e-08
1.2084559e-08
1.0606733e-08
7.5366537e-09
3.1648496e-07
5.4598442e-07
6.6555877e-07
5.4598198e-07
3.164841e-07
3.8765676e-06
5.8712333e-06
6.6221704e-06
5.871232e-06
3.8765694e-06
9.8573501e-06
1.2599904e-05
1.3584319e-05
1.2599896e-05
9.8573484e-06
1.5088123e-05
1.7732205e-05
1.8471598e-05
1.7732221e-05
1.5088136e-05
5.4919062e-09
7.7704164e-09
8.7491784e-09
7.7703538e-09
5.4918516e-09
2.3432989e-07
4.0825541e-07
4.9241952e-07
4.0825245e-07
2.3432781e-07
3.163155e-06
5.0559515e-06
5.784026e-06
5.0559421e-06
3.1631434e-06
8.9298649e-06
1.1621644e-05
1.2607689e-05
1.1621623e-05
8.9298484e-06
1.4182919e-05
1.6984515e-05
1.7824011e-05
1.6984502e-05
1.4182904e-05
4.0696882e-09
5.8739291e-09
6.613616e-09
5.8738823e-09
4.0696461e-09
1.7599931e-07
3.1389741e-07
3.7899255e-07
3.138951e-07
1.7599762e-07
2.5740942e-06
4.3354047e-06
5.0447734e-06
4.3353937e-06
2.5740812e-06
8.0917915e-06
1.0732673e-05
1.171305e-05
1.0732654e-05
8.091777e-06
1.3332544e-05
1.6236562e-05
1.7157935e-05
1.6236548e-05
1.3332532e-05
3.0515483e-09
4.5090787e-09
5.1188022e-09
4.5090358e-09
3.0515076e-09
1.3351685e-07
2.4446359e-07
2.9784706e-07
2.4446139e-07
1.3351515e-07
2.0909684e-06
3.6913277e-06
4.3804185e-06
3.6913112e-06
2.090951e-06
7.3326782e-06
9.9261772e-06
1.0891599e-05
9.9261516e-06
7.3326556e-06
1.2536526e-05
1.5500773e-05
1.6483929e-05
1.5500731e-05
1.2536489e-05
2.3135112e-09
3.4953787e-09
4.0094657e-09
3.4953479e-09
2.3134842e-09
1.0227165e-07
1.9190305e-07
2.3640049e-07
1.919014e-07
1.0227047e-07
1.6998327e-06
3.1261583e-06
3.7780121e-06
3.1261411e-06
1.6998176e-06
6.6451076e-06
9.1847812e-06
1.0141531e-05
9.1847593e-06
6.6450871e-06
1.1793902e-05
1.4787729e-05
1.5815687e-05
1.4787691e-05
1.1793869e-05
1.7740207e-09
2.7273979e-09
3.1625887e-09
2.7273728e-09
1.7739998e-09
7.9148497e-08
1.5141582e-07
1.8865711e-07
1.5141442e-07
7.9147551e-08
1.3863626e-06
2.6348141e-06
3.2392635e-06
2.6347949e-06
1.3863479e-06
6.0213332e-06
8.5004379e-06
9.4466468e-06
8.5004151e-06
6.0213074e-06
1.1100779e-05
1.4101798e-05
1.5159451e-05
1.4101753e-05
1.1100737e-05
1.3760415e-09
2.1392758e-09
2.505507e-09
2.1392614e-09
1.3760319e-09
6.1906716e-08
1.199592e-07
1.510311e-07
1.1995833e-07
6.1906244e-08
1.136195e-06
2.2128456e-06
2.7621678e-06
2.2128292e-06
1.1361849e-06
5.4536724e-06
7.8679061e-06
8.8006697e-06
7.8678882e-06
5.4536482e-06
1.0453139e-05
1.3446654e-05
1.4521805e-05
1.3446627e-05
1.045311e-05
1.0794022e-09
1.6867022e-09
1.9911866e-09
1.6866955e-09
1.0793999e-09
4.8932314e-08
9.5446444e-08
1.2117054e-07
9.5445984e-08
4.8932155e-08
9.3646613e-07
1.8553381e-06
2.3446444e-06
1.8553253e-06
9.3645985e-07
4.9355752e-06
7.2814395e-06
8.1986099e-06
7.2814242e-06
4.9355503e-06
9.8458217e-06
1.2821769e-05
1.3904637e-05
1.2821756e-05
9.8458006e-06
8.5563236e-10
1.3378411e-09
1.5878553e-09
1.3378433e-09
8.5563846e-10
3.9060229e-08
7.6342091e-08
9.7468339e-08
7.6342129e-08
3.9060448e-08
7.7630715e-07
1.5562499e-06
1.9848582e-06
1.5562439e-06
7.7630678e-07
4.4617512e-06
6.7366944e-06
7.6368734e-06
6.736685e-06
4.4617338e-06
9.2753593e-06
1.222827e-05
1.3311833e-05
1.2228283e-05
9.2753573e-06
6.8469677e-10
1.0685919e-09
1.2718804e-09
1.0686007e-09
6.8470804e-10
3.1458776e-08
6.1452651e-08
7.8700016e-08
6.1453074e-08
3.1459239e-08
6.4702728e-07
1.3084141e-06
1.6792889e-06
1.3084154e-06
6.4703165e-07
4.0278876e-06
6.229563e-06
7.1115773e-06
6.2295602e-06
4.0278798e-06
8.7375746e-06
1.1663827e-05
1.2742942e-05
1.1663861e-05
8.7375883e-06
5.5246934e-10
8.6022946e-10
1.0246629e-09
8.6024351e-10
5.5248501e-10
2.5534851e-08
4.9828114e-08
6.3875342e-08
4.9828858e-08
2.5535528e-08
5.4186109e-07
1.1041537e-06
1.4227934e-06
1.1041621e-06
5.4187032e-07
3.6305665e-06
5.7568399e-06
6.6198841e-06
5.7568477e-06
3.6305759e-06
8.2300221e-06
1.1128363e-05
1.22001e-05
1.112842e-05
8.2300572e-06
4.4895938e-10
6.9820161e-10
8.3121711e-10
6.9821803e-10
4.489767e-10
2.0863981e-08
4.0710934e-08
5.2169945e-08
4.0711838e-08
2.0864747e-08
4.556278e-07
9.3596674e-07
1.2091248e-06
9.3598009e-07
4.5563993e-07
3.2668563e-06
5.3152196e-06
6.1586299e-06
5.3152385e-06
3.266883e-06
7.7492577e-06
1.0618584e-05
1.1681058e-05
1.0618654e-05
7.7493098e-06
3.670375e-10
5.7117086e-10
6.792692e-10
5.7118794e-10
3.6705578e-10
1.7142859e-08
3.3509084e-08
4.2903182e-08
3.3510046e-08
1.7143681e-08
3.8441074e-07
7.9707581e-07
1.0316264e-06
7.9709248e-07
3.844251e-07
2.9344153e-06
4.9021974e-06
5.7253635e-06
4.9022292e-06
2.9344623e-06
7.2937134e-06
1.0134033e-05
1.1186795e-05
1.0134115e-05
7.2937849e-06
3.0164346e-10
4.7069291e-10
5.5923687e-10
4.70709e-10
3.0166089e-10
1.4154942e-08
2.7773618e-08
3.5531774e-08
2.7774535e-08
1.4155729e-08
3.2518206e-07
6.8177845e-07
8.8408561e-07
6.8179595e-07
3.2519669e-07
2.6310323e-06
4.5152438e-06
5.3174039e-06
4.515287e-06
2.6310941e-06
6.8606049e-06
9.6710237e-06
1.0713883e-05
9.6711093e-06
6.8606901e-06
2.4892109e-10
3.9054209e-10
4.6388473e-10
3.9055628e-10
2.4893684e-10
1.1732402e-08
2.3169224e-08
2.9638765e-08
2.3170041e-08
1.1733119e-08
2.7567154e-07
5.8534586e-07
7.608312e-07
5.8536259e-07
2.7568559e-07
2.3549438e-06
4.1527221e-06
4.93292e-06
4.1527748e-06
2.3550189e-06
6.4491701e-06
9.2294092e-06
1.026302e-05
9.2294939e-06
6.4492678e-06
2.0618013e-10
3.258259e-10
3.872264e-10
3.2583773e-10
2.0619391e-10
9.7582126e-09
1.942824e-08
2.4871293e-08
1.9428929e-08
9.7588473e-09
2.3418133e-07
5.0415207e-07
6.5723949e-07
5.0416704e-07
2.3419462e-07
2.1044079e-06
3.8128024e-06
4.5697995e-06
3.8128611e-06
2.1044849e-06
6.0571504e-06
8.8054793e-06
9.8301915e-06
8.8055584e-06
6.0572542e-06
1.7134543e-10
2.7304109e-10
3.2500415e-10
2.7304977e-10
1.7135678e-10
8.1413493e-09
1.6358994e-08
2.0978825e-08
1.63595e-08
8.1418799e-09
1.9930714e-07
4.3529637e-07
5.6964287e-07
4.3530839e-07
1.9931872e-07
1.8776309e-06
3.4946386e-06
4.2269692e-06
3.4946991e-06
1.8777056e-06
5.6842407e-06
8.3996962e-06
9.4163597e-06
8.3997655e-06
5.6843462e-06
1.4280146e-10
2.2972367e-10
2.7394818e-10
2.2973022e-10
1.4280993e-10
6.8102428e-09
1.3826217e-08
1.7766614e-08
1.3826606e-08
6.8106431e-09
1.6987578e-07
3.7668499e-07
4.9489129e-07
3.7669546e-07
1.6988483e-07
1.6729329e-06
3.1968114e-06
3.9029721e-06
3.196868e-06
1.6729969e-06
5.3286723e-06
8.0083858e-06
9.0172194e-06
8.0084447e-06
5.3287729e-06
1.1929175e-10
1.9394509e-10
2.3192942e-10
1.9394932e-10
1.1929794e-10
5.7090729e-09
1.1723148e-08
1.5108978e-08
1.1723409e-08
5.7093674e-09
1.4496011e-07
3.2657574e-07
4.3111263e-07
3.2658355e-07
1.4496704e-07
1.4886797e-06
2.918744e-06
3.5971331e-06
2.918791e-06
1.4887346e-06
4.9907368e-06
7.6328213e-06
8.6343159e-06
7.6328653e-06
4.9908284e-06
9.9891967e-11
1.6416782e-10
1.9700111e-10
1.6417032e-10
9.9895723e-11
4.7966192e-09
9.9637982e-09
1.2888183e-08
9.9639593e-09
4.7968e-09
1.2385754e-07
2.8345355e-07
3.7617504e-07
2.8345916e-07
1.2386204e-07
1.323424e-06
2.6595401e-06
3.3083853e-06
2.6595789e-06
1.3234649e-06
4.6685885e-06
7.269191e-06
8.2632441e-06
7.2692246e-06
4.6686651e-06
8.3829884e-11
1.3926132e-10
1.6774856e-10
1.3926258e-10
8.3831488e-11
4.0382132e-09
8.4851023e-09
1.1018934e-08
8.4851843e-09
4.0382924e-09
1.0595598e-07
2.4624198e-07
3.285918e-07
2.4624496e-07
1.0595816e-07
1.1756341e-06
2.4191987e-06
3.0369739e-06
2.4192227e-06
1.1756584e-06
4.3628241e-06
6.9195457e-06
7.9061823e-06
6.9195634e-06
4.3628772e-06
7.0491865e-11
1.1831706e-10
1.4311475e-10
1.1831756e-10
7.049196e-11
3.4060726e-09
7.235787e-09
9.4371447e-09
7.2358197e-09
3.4060804e-09
9.073966e-08
2.1399403e-07
2.8720309e-07
2.1399527e-07
9.0740178e-08
1.0434995e-06
2.1962042e-06
2.7820977e-06
2.1962198e-06
1.0435104e-06
4.0714444e-06
6.5802527e-06
7.5586448e-06
6.580263e-06
4.0714776e-06
5.9393996e-11
1.0070113e-10
1.2229097e-10
1.0070044e-10
5.9392948e-11
2.8782443e-09
6.1803865e-09
8.0938464e-09
6.1803479e-09
2.8781969e-09
7.779977e-08
1.8610308e-07
2.511395e-07
1.8610242e-07
7.7798861e-08
9.2576594e-07
1.9910802e-06
2.5439991e-06
1.9910825e-06
9.2576368e-07
3.795524e-06
6.2541252e-06
7.2236038e-06
6.2541202e-06
3.7955308e-06
5.0129563e-11
8.5818977e-11
1.0463284e-10
8.5817754e-11
5.0128017e-11
2.4361117e-09
5.284994e-09
6.9496896e-09
5.2849233e-09
2.4360396e-09
6.6767776e-08
1.6189973e-07
2.1965444e-07
1.6189815e-07
6.6766174e-08
8.2076129e-07
1.8022492e-06
2.3218635e-06
1.8022439e-06
8.2075109e-07
3.532902e-06
5.9371914e-06
6.8967085e-06
5.93718e-06
3.5328916e-06
4.23887e-11
7.3239893e-11
8.9636022e-11
7.3238321e-11
4.2386795e-11
2.0655026e-09
4.5251829e-09
5.9739312e-09
4.5250892e-09
2.0654124e-09
5.7366519e-08
1.4092717e-07
1.921824e-07
1.4092479e-07
5.7364356e-08
7.2747216e-07
1.6296009e-06
2.1160789e-06
1.6295868e-06
7.2745432e-07
3.2849792e-06
5.632652e-06
6.5814747e-06
5.6326283e-06
3.2849462e-06
3.5894805e-11
6.2572161e-11
7.6861037e-11
6.2570743e-11
3.5892994e-11
1.7536135e-09
3.8783119e-09
5.1393371e-09
3.8782265e-09
1.7535269e-09
4.9326637e-08
1.2270277e-07
1.6815478e-07
1.227005e-07
4.932448e-08
6.4437494e-07
1.4714795e-06
1.9252535e-06
1.4714636e-06
6.4435517e-07
3.0493379e-06
5.3363197e-06
6.27311e-06
5.3362952e-06
3.049296e-06
3.0448726e-11
5.3537078e-11
6.5988342e-11
5.3535666e-11
3.0446941e-11
1.491275e-09
3.3284502e-09
4.4263074e-09
3.328364e-09
1.491189e-09
4.2462059e-08
1.0691566e-07
1.4719932e-07
1.0691325e-07
4.2459839e-08
5.7071567e-07
1.3278346e-06
1.7498008e-06
1.3278146e-06
5.7069334e-07
2.8276905e-06
5.0522297e-06
5.9759791e-06
5.0521952e-06
2.8276343e-06
2.5859222e-11
4.5852555e-11
5.6699955e-11
4.585136e-11
2.5857852e-11
1.26955e-09
2.8590965e-09
3.8148673e-09
2.8590232e-09
1.2694836e-09
3.6574115e-08
9.3185992e-08
1.2886031e-07
9.3183892e-08
3.6572362e-08
5.0515481e-07
1.1968473e-06
1.5879782e-06
1.1968293e-06
5.0513606e-07
2.6175133e-06
4.7757765e-06
5.6847474e-06
4.7757452e-06
2.6174609e-06
2.1997038e-11
3.9329634e-11
4.8786616e-11
3.9328532e-11
2.1995849e-11
1.082456e-09
2.459375e-09
3.2921362e-09
2.4593068e-09
1.082398e-09
3.1537682e-08
8.1291891e-08
1.1288822e-07
8.1289858e-08
3.1536102e-08
4.4714631e-07
1.0784444e-06
1.440298e-06
1.0784249e-06
4.4712816e-07
2.4206583e-06
4.5114337e-06
5.4049834e-06
4.5113955e-06
2.4206e-06
1.8726191e-11
3.3760154e-11
4.2004049e-11
3.3759396e-11
1.8725397e-11
9.2357094e-10
2.1169335e-09
2.84253e-09
2.1168862e-09
9.2353203e-10
2.720186e-08
7.0925813e-08
9.8892243e-08
7.092436e-08
2.7200779e-08
3.9548194e-07
9.7068903e-07
1.3045912e-06
9.7067415e-07
3.954689e-07
2.2342367e-06
4.2540201e-06
5.1302808e-06
4.2539907e-06
2.2341915e-06
1.5965498e-11
2.9027303e-11
3.6219788e-11
2.9026658e-11
1.5964824e-11
7.8912965e-10
1.8250414e-09
2.4578813e-09
1.8250008e-09
7.8909643e-10
2.3487061e-08
6.1950948e-08
8.67151e-08
6.1949654e-08
2.3486117e-08
3.4983969e-07
8.7372985e-07
1.1814661e-06
8.7371539e-07
3.4982761e-07
2.06044e-06
4.0088869e-06
4.8672496e-06
4.0088532e-06
2.0603924e-06
1.361612e-11
2.4971297e-11
3.1245468e-11
2.4970912e-11
1.3615736e-11
6.744193e-10
1.5740945e-09
2.1259985e-09
1.5740701e-09
6.7440029e-10
2.0276832e-08
5.4110182e-08
7.602502e-08
5.4109386e-08
2.0276281e-08
3.0913849e-07
7.8555345e-07
1.0685356e-06
7.8554402e-07
3.0913109e-07
1.8960406e-06
3.7700911e-06
4.6085608e-06
3.7700682e-06
1.8960088e-06
1.1629449e-11
2.1520178e-11
2.7000618e-11
2.1519844e-11
1.1629107e-11
5.77193e-10
1.3599703e-09
1.8419599e-09
1.359949e-09
5.7717602e-10
1.7524554e-08
4.7323524e-08
6.6734386e-08
4.7322812e-08
1.7524054e-08
2.7325657e-07
7.0651008e-07
9.6659503e-07
7.0650105e-07
2.7324956e-07
1.7436089e-06
3.54379e-06
4.3619843e-06
3.5437637e-06
1.7435756e-06
9.9304956e-12
1.8547812e-11
2.3334126e-11
1.8547651e-11
9.9303371e-12
4.9384008e-10
1.1749895e-09
1.5958496e-09
1.1749791e-09
4.9383219e-10
1.5136567e-08
4.1371493e-08
5.8552649e-08
4.1371135e-08
1.5136331e-08
2.412001e-07
6.3454048e-07
8.7307948e-07
6.3453561e-07
2.4119661e-07
1.5995078e-06
3.3231296e-06
4.1190487e-06
3.3231142e-06
1.5994891e-06
8.4925849e-12
1.6016269e-11
2.0203903e-11
1.6016108e-11
8.4924113e-12
4.2314295e-10
1.0170325e-09
1.3851719e-09
1.0170222e-09
4.2313427e-10
1.3089622e-08
3.6221653e-08
5.144936e-08
3.6221292e-08
1.3089362e-08
2.1301206e-07
5.7024509e-07
7.890348e-07
5.7023999e-07
2.130082e-07
1.4667e-06
3.1152252e-06
3.888758e-06
3.1152063e-06
1.4666784e-06
7.2570738e-12
1.3824173e-11
1.7486451e-11
1.3824111e-11
7.2570046e-12
3.6225147e-10
8.7985402e-10
1.201721e-09
8.7985003e-10
3.6224804e-10
1.130642e-08
3.1684732e-08
4.5168103e-08
3.1684589e-08
1.1306318e-08
1.8777202e-07
5.1156433e-07
7.1179741e-07
5.1156212e-07
1.8777044e-07
1.3411648e-06
2.9122712e-06
3.6614183e-06
2.9122615e-06
1.3411546e-06
6.2115621e-12
1.1956636e-11
1.516642e-11
1.1956545e-11
6.2114508e-12
3.1062255e-10
7.6270577e-10
1.0447126e-09
7.6269991e-10
3.10617e-10
9.7796093e-09
2.7762926e-08
3.9721885e-08
2.776272e-08
9.7794447e-09
1.6564981e-07
4.5932929e-07
6.426737e-07
4.5932624e-07
1.6564736e-07
1.2262322e-06
2.7223413e-06
3.4473237e-06
2.7223274e-06
1.2262175e-06
5.3089101e-12
1.0330083e-11
1.3140662e-11
1.0330045e-11
5.3088558e-12
2.6594501e-10
6.6038271e-10
9.0721388e-10
6.6038026e-10
2.6594234e-10
8.4439357e-09
2.4290172e-08
3.4881537e-08
2.4290088e-08
8.4438594e-09
1.457877e-07
4.1149797e-07
5.7895028e-07
4.1149668e-07
1.457866e-07
1.1175415e-06
2.5366626e-06
3.2355056e-06
2.5366555e-06
1.1175345e-06
4.5459894e-12
8.945146e-12
1.14122e-11
8.9450711e-12
4.5458903e-12
2.281157e-10
5.7306755e-10
7.896282e-10
5.7306276e-10
2.2811077e-10
7.3027069e-09
2.1293349e-08
3.0692193e-08
2.1293183e-08
7.3025621e-09
1.2844864e-07
3.6909671e-07
5.2217418e-07
3.6909431e-07
1.2844653e-07
1.0187494e-06
2.3642404e-06
3.0375471e-06
2.3642286e-06
1.0187369e-06
3.8841114e-12
7.7315477e-12
9.893422e-12
7.7314993e-12
3.8840445e-12
1.9522257e-10
4.963405e-10
6.8600726e-10
4.9633744e-10
1.9521928e-10
6.2999655e-09
1.8624971e-08
2.6947569e-08
1.8624868e-08
6.2998704e-09
1.1283213e-07
3.301156e-07
4.6961946e-07
3.3011413e-07
1.1283078e-07
9.2521587e-07
2.1953655e-06
2.8412088e-06
2.1953579e-06
9.2520811e-07
3.3259999e-12
6.7000104e-12
8.5996336e-12
6.6999306e-12
3.3258983e-12
1.6744101e-10
4.3099317e-10
5.9755419e-10
4.3098809e-10
1.6743595e-10
5.4459082e-09
1.6328709e-08
2.3715481e-08
1.6328534e-08
5.445758e-09
9.9265552e-08
2.9573341e-07
4.2303547e-07
2.9573087e-07
9.926333e-08
8.408712e-07
2.0399156e-06
2.6593224e-06
2.0399034e-06
8.4085823e-07
2.8393636e-12
5.7903885e-12
7.4552318e-12
5.7903235e-12
2.839283e-12
1.4316375e-10
3.7320994e-10
5.1908964e-10
3.7320581e-10
1.4315975e-10
4.6919917e-09
1.4272174e-08
2.0808648e-08
1.4272032e-08
4.6918727e-09
8.7002562e-08
2.6398245e-07
3.7970936e-07
2.6398038e-07
8.7000797e-08
7.6086961e-07
1.8873065e-06
2.4784163e-06
1.8872965e-06
7.6085927e-07
2.4304478e-12
5.0195914e-12
6.4831953e-12
5.019506e-12
2.4303465e-12
1.227338e-10
3.2415688e-10
4.5231866e-10
3.2415141e-10
1.2272873e-10
4.052596e-09
1.2509622e-08
1.8309653e-08
1.250943e-08
4.0524424e-09
7.6411143e-08
2.3614884e-07
3.4154368e-07
2.3614597e-07
7.6408778e-08
6.8935172e-07
1.7481979e-06
2.3124876e-06
1.748184e-06
6.8933731e-07
2.0720046e-12
4.3354013e-12
5.6174015e-12
4.3353264e-12
2.0719194e-12
1.0478639e-10
2.8049597e-10
3.9267565e-10
2.8049118e-10
1.0478214e-10
3.4853399e-09
1.0921245e-08
1.6047345e-08
1.0921075e-08
3.4852095e-09
6.6797807e-08
2.1031534e-07
3.0585746e-07
2.1031272e-07
6.6795757e-08
6.2134245e-07
1.6112247e-06
2.1469083e-06
1.6112116e-06
6.2132956e-07
1.7722229e-12
3.758215e-12
4.8852321e-12
3.7581306e-12
1.7721289e-12
8.9756525e-11
2.4360397e-10
3.421537e-10
2.4359854e-10
8.9751812e-11
3.0068642e-09
9.5673142e-09
1.4112964e-08
9.5671188e-09
3.0067179e-09
5.8551825e-08
1.8783555e-07
2.7465716e-07
1.8783247e-07
5.8549464e-08
5.6112517e-07
1.4877207e-06
1.9967303e-06
1.4877049e-06
5.6110973e-07
1.5079559e-12
3.242306e-12
4.2283216e-12
3.2422308e-12
1.5078756e-12
7.6478435e-11
2.1053816e-10
2.9669494e-10
2.1053332e-10
7.6474395e-11
2.5800659e-09
8.339028e-09
1.2349521e-08
8.338851e-09
2.579939e-09
5.1032151e-08
1.6685296e-07
2.453108e-07
1.6685007e-07
5.1030047e-08
5.036714e-07
1.3656526e-06
1.8462707e-06
1.365637e-06
5.03657e-07
1.2882733e-12
2.8097146e-12
3.6761487e-12
2.8096379e-12
1.2881924e-12
6.5427771e-11
1.8277308e-10
2.5842815e-10
1.8276813e-10
6.5423691e-11
2.2224939e-09
7.2993439e-09
1.0852285e-08
7.2991609e-09
2.2223644e-09
4.4634099e-08
1.4875428e-07
2.1988337e-07
1.4875123e-07
4.463191e-08
4.533385e-07
1.2569087e-06
1.7115024e-06
1.2568917e-06
4.5332302e-07
1.0934334e-12
2.4201276e-12
3.1768465e-12
2.4200595e-12
1.0933641e-12
5.5605442e-11
1.5769908e-10
2.2372539e-10
1.5769467e-10
5.5601937e-11
1.9016435e-09
6.3492201e-09
9.4769552e-09
6.3490546e-09
1.9015309e-09
3.8768352e-08
1.3175154e-07
1.9580676e-07
1.3174869e-07
3.8766395e-08
4.0511418e-07
1.1489093e-06
1.5758132e-06
1.1488924e-06
4.0509965e-07
9.3268222e-13
2.0959778e-12
2.7604223e-12
2.0959129e-12
9.3261667e-13
4.7493569e-11
1.3681127e-10
1.9474651e-10
1.3680705e-10
4.749025e-11
1.6350383e-09
5.5519163e-09
8.319469e-09
5.5517568e-09
1.6349308e-09
3.3824607e-08
1.1723635e-07
1.7516588e-07
1.1723354e-07
3.3822708e-08
3.6336474e-07
1.0539754e-06
1.4559539e-06
1.0539583e-06
3.6335021e-07
7.8915673e-13
1.8015999e-12
2.3806209e-12
1.8015429e-12
7.8910084e-13
4.0235063e-11
1.1778874e-10
1.6823861e-10
1.1778502e-10
4.0232227e-11
1.394235e-09
4.8172707e-09
7.2472027e-09
4.8171279e-09
1.394142e-09
2.9264368e-08
1.0349711e-07
1.5547088e-07
1.0349451e-07
2.9262681e-08
3.2315694e-07
9.5911241e-07
1.3345239e-06
9.5909564e-07
3.231434e-07
6.7182684e-13
1.5590022e-12
2.0669397e-12
1.5589504e-12
6.7177645e-13
3.429644e-11
1.0209638e-10
1.4632272e-10
1.02093e-10
3.4293878e-11
1.1961099e-09
4.2072064e-09
6.3543953e-09
4.2070753e-09
1.1960253e-09
2.5463155e-08
9.1908142e-08
1.3879465e-07
9.1905716e-08
2.5461598e-08
2.8880708e-07
8.76953e-07
1.2289041e-06
8.7693682e-07
2.8879425e-07
5.6629288e-13
1.3365789e-12
1.7780334e-12
1.336534e-12
5.6625029e-13
2.8942988e-11
8.7667759e-11
1.2607714e-10
8.7664819e-11
2.8940818e-11
1.0158351e-09
3.6397376e-09
5.5192402e-09
3.639622e-09
1.0157627e-09
2.193199e-08
8.0840711e-08
1.227374e-07
8.0838503e-08
2.1930623e-08
2.5551554e-07
7.94221e-07
1.1210612e-06
7.9420544e-07
2.5550375e-07
4.8097049e-13
1.1553973e-12
1.5422448e-12
1.1553578e-12
4.809334e-13
2.4611975e-11
7.5905152e-11
1.0954045e-10
7.5902563e-11
2.4610083e-11
8.692421e-10
3.1743548e-09
4.8327361e-09
3.1742522e-09
8.6917851e-10
1.9026164e-08
7.1634818e-08
1.0933641e-07
7.1632824e-08
1.9024947e-08
2.2749716e-07
7.2374533e-07
1.0288673e-06
7.237308e-07
2.2748639e-07
4.0358611e-13
9.8744575e-13
1.3226106e-12
9.8741205e-13
4.035551e-13
2.0674991e-11
6.4969251e-11
9.4088989e-11
6.4967035e-11
2.0673405e-11
7.3473615e-10
2.7366631e-09
4.1832436e-09
2.7365741e-09
7.3468229e-10
1.630456e-08
6.2749722e-08
9.6292362e-08
6.2747941e-08
1.6303506e-08
2.0013189e-07
6.5209753e-07
9.3380701e-07
6.520839e-07
2.0012217e-07
3.4184475e-13
8.5253582e-13
1.1459153e-12
8.525069e-13
3.4181846e-13
1.7532363e-11
5.617984e-11
8.1651242e-11
5.6177935e-11
1.7531017e-11
6.2687152e-10
2.3830074e-09
3.6574734e-09
2.3829303e-09
6.2682553e-10
1.4098237e-08
5.547815e-08
8.5587765e-08
5.5476579e-08
1.4097325e-08
1.7748975e-07
5.9219269e-07
8.5410618e-07
5.9218022e-07
1.7748111e-07
2.8531479e-13
7.2585818e-13
9.7912531e-13
7.2583389e-13
2.8529307e-13
1.4648296e-11
4.7901427e-11
6.9872885e-11
4.7899823e-11
1.4647181e-11
5.2694462e-10
2.0460476e-09
3.1533337e-09
2.0459818e-09
5.2690616e-10
1.2011839e-08
4.837071e-08
7.5031601e-08
4.8369335e-08
1.201106e-08
1.5516687e-07
5.3057192e-07
7.7091984e-07
5.3056051e-07
1.5515922e-07
2.409194e-13
6.2579823e-13
8.4724169e-13
6.2577775e-13
2.4090137e-13
1.2382681e-11
4.1360416e-11
6.0556696e-11
4.135906e-11
1.2381754e-11
4.4812161e-10
1.7785608e-09
2.7526063e-09
1.7785048e-09
4.4808944e-10
1.03499e-08
4.2663471e-08
6.6537377e-08
4.2662277e-08
1.0349239e-08
1.3705419e-07
4.801353e-07
7.0270028e-07
4.8012502e-07
1.3704751e-07
1.9982151e-13
5.3039994e-13
7.2076343e-13
5.3038304e-13
1.998068e-13
1.0280299e-11
3.5104077e-11
5.1592094e-11
3.5102956e-11
1.0279542e-11
3.7427285e-10
1.5197295e-09
2.3621395e-09
1.5196826e-09
3.7424632e-10
8.7602146e-09
3.6999553e-08
5.8027507e-08
3.699853e-08
8.7596597e-09
1.1898984e-07
4.2750041e-07
6.3041416e-07
4.2749122e-07
1.1898405e-07
1.6814914e-13
4.5656416e-13
6.228242e-13
4.5655006e-13
1.6813714e-13
8.659978e-12
3.0261636e-11
4.4650211e-11
3.0260699e-11
8.659359e-12
3.1715249e-10
1.3185872e-09
2.0584932e-09
1.3185477e-09
3.1713068e-10
7.519896e-09
3.2552734e-08
5.1337299e-08
3.2551854e-08
7.5194331e-09
1.0466182e-07
3.8546935e-07
5.7263172e-07
3.8546116e-07
1.0465685e-07
1.3844844e-13
3.8486214e-13
5.2707763e-13
3.8485072e-13
1.3843879e-13
7.1367258e-12
2.5543134e-11
3.783938e-11
2.5542373e-11
7.1362273e-12
2.6292246e-10
1.1202803e-09
1.7567809e-09
1.1202479e-09
2.6290476e-10
6.3171914e-09
2.8057158e-08
4.4503667e-08
2.805642e-08
6.3168091e-09
9.0169244e-08
3.4081635e-07
5.1024349e-07
3.4080918e-07
9.016501e-08
1.16083e-13
3.3073699e-13
4.5481531e-13
3.3072752e-13
1.1607521e-13
5.9898796e-12
2.1982295e-11
3.2700737e-11
2.1981663e-11
5.989477e-12
2.2196972e-10
9.7012785e-10
1.5283462e-09
9.7010068e-10
2.2195532e-10
5.4020393e-09
2.4622406e-08
3.9279882e-08
2.4621775e-08
5.4017239e-09
7.8981219e-08
3.0618995e-07
4.6186339e-07
3.061836e-07
7.8977625e-08
9.4762745e-14
2.7696536e-13
3.8246415e-13
2.7695784e-13
9.4756593e-14
4.8937473e-12
1.8431836e-11
2.7535964e-11
1.8431333e-11
4.8934286e-12
1.8242457e-10
8.1861637e-10
1.2957736e-09
8.1859452e-10
1.8241309e-10
4.4988575e-09
2.106878e-08
3.3813182e-08
2.1068261e-08
4.4986019e-09
6.7453055e-08
2.6856463e-07
4.0836824e-07
2.6855919e-07
6.7450057e-08
7.9163976e-14
2.3763973e-13
3.2960254e-13
2.3763352e-13
7.9159059e-14
4.0921483e-12
1.5836919e-11
2.3765181e-11
1.5836503e-11
4.0918932e-12
1.534374e-10
7.075933e-10
1.1255105e-09
7.0757506e-10
1.5342815e-10
3.8326188e-09
1.8444424e-08
2.9777779e-08
1.8443983e-08
3.8324099e-09
5.8844957e-08
2.4042525e-07
3.6840344e-07
2.4042047e-07
5.8842436e-08
6.3963793e-14
1.9739884e-13
2.7501339e-13
1.9739402e-13
6.3959997e-14
3.3088244e-12
1.3171101e-11
1.9854825e-11
1.3170777e-11
3.3086271e-12
1.2480274e-10
5.9213333e-10
9.4660007e-10
5.92119e-10
1.2479554e-10
3.1592935e-09
1.5646015e-08
2.5419109e-08
1.564566e-08
3.1591281e-09
4.9748951e-08
2.0892213e-07
3.2280379e-07
2.0891813e-07
4.9746899e-08
5.3260097e-14
1.6918266e-13
2.3680946e-13
1.6917871e-13
5.3257099e-14
2.7576907e-12
1.1304013e-11
1.7121572e-11
1.1303747e-11
2.7575347e-12
1.0462568e-10
5.1112679e-10
8.2131689e-10
5.1111492e-10
1.0461994e-10
2.682571e-09
1.3669972e-08
2.2345802e-08
1.3669673e-08
2.6824373e-09
4.3247593e-08
1.8645053e-07
2.9035194e-07
1.8644706e-07
4.3245889e-08
4.2485129e-14
1.3909071e-13
1.9562725e-13
1.3908775e-13
4.2482897e-14
2.2011509e-12
9.3040169e-12
1.4161436e-11
9.303817e-12
2.2010345e-12
8.40115e-11
4.2324453e-10
6.8376565e-10
4.2323548e-10
8.400718e-11
2.1835448e-09
1.1471361e-08
1.8876687e-08
1.1471127e-08
2.1834425e-09
3.6116154e-08
1.6019641e-07
2.5164576e-07
1.6019359e-07
3.6114811e-08
3.5317562e-14
1.1924736e-13
1.6854573e-13
1.1924499e-13
3.5315838e-14
1.831468e-12
7.9876193e-12
1.2218691e-11
7.9874586e-12
1.831378e-12
7.0313892e-11
3.6536522e-10
5.9342951e-10
3.6535787e-10
7.0310521e-11
1.8510192e-09
1.0016413e-08
1.6586473e-08
1.0016219e-08
1.850938e-09
3.1335307e-08
1.4270046e-07
2.2593984e-07
1.4269805e-07
3.1334213e-08
2.7677998e-14
9.6647546e-14
1.3732933e-13
9.6645871e-14
2.7676796e-14
1.4359817e-12
6.4806352e-12
9.96712e-12
6.4805211e-12
1.4359188e-12
5.5469666e-11
2.9820546e-10
4.8720787e-10
2.9820013e-10
5.546728e-11
1.4810576e-09
8.2839067e-09
1.3816248e-08
8.2837619e-09
1.4809988e-09
2.5744693e-08
1.2080776e-07
1.9306064e-07
1.2080588e-07
2.5743873e-08
2.3105378e-14
8.324944e-14
1.1887321e-13
8.3248157e-14
2.3104489e-14
1.1998815e-12
5.5900342e-12
8.6402689e-12
5.5899463e-12
1.1998348e-12
4.6619777e-11
2.5855879e-10
4.2467487e-10
2.5855461e-10
4.6617983e-11
1.2603582e-09
7.2584619e-09
1.2180353e-08
7.2583454e-09
1.2603129e-09
2.2400533e-08
1.0780066e-07
1.7358533e-07
1.0779909e-07
2.2399881e-08
1.7544716e-14
6.5861412e-14
9.4643236e-14
6.5860629e-14
1.7544186e-14
9.1131625e-13
4.4266643e-12
6.8864384e-12
4.4266099e-12
9.1128823e-13
3.5646985e-11
2.0600651e-10
3.4072823e-10
2.0600381e-10
3.5645883e-11
9.7912071e-10
5.8630932e-09
9.9209671e-09
5.8630134e-09
9.7909173e-10
1.7920983e-08
8.9231818e-08
1.4521548e-07
8.9230674e-08
1.7920542e-08
1.509562e-14
5.8008049e-14
8.3663887e-14
5.8007491e-14
1.5095248e-14
7.8500854e-13
3.9043404e-12
6.0964409e-12
3.9043011e-12
7.8498873e-13
3.0851761e-11
1.8244201e-10
3.0294613e-10
1.8243997e-10
3.0850961e-11
8.5539258e-10
5.2330168e-09
8.8954142e-09
5.2329536e-09
8.5537075e-10
1.5911534e-08
8.0686431e-08
1.3205587e-07
8.0685482e-08
1.5911186e-08
1.0283788e-14
4.204009e-14
6.1201674e-14
4.2039967e-14
1.0283695e-14
5.3451212e-13
2.8317585e-12
4.4638498e-12
2.8317486e-12
5.3450697e-13
2.1204824e-11
1.3339865e-10
2.2377838e-10
1.3339793e-10
2.120458e-11
6.0169257e-10
3.8979289e-09
6.7055902e-09
3.8978992e-09
6.0168425e-10
1.1674188e-08
6.210955e-08
1.0317624e-07
6.2109007e-08
1.1674023e-08
1.6361437e-05
1.748185e-05
1.772357e-05
1.7481847e-05
1.6361434e-05
1.9541802e-05
2.0038536e-05
2.0170609e-05
2.0038539e-05
1.9541804e-05
2.0788991e-05
2.1002102e-05
2.1055814e-05
2.1002114e-05
2.0789007e-05
2.1169962e-05
2.1240309e-05
2.1254269e-05
2.1240311e-05
2.1169967e-05
2.1270909e-05
2.1288723e-05
2.1291106e-05
2.1288723e-05
2.127091e-05
1.9096597e-06
3.148825e-06
3.8617234e-06
3.1488318e-06
1.9096648e-06
1.0593254e-05
1.2708471e-05
1.3525765e-05
1.2708484e-05
1.0593269e-05
1.7786958e-05
1.9306726e-05
1.9691995e-05
1.9306787e-05
1.7787034e-05
2.0459365e-05
2.0910761e-05
2.1002527e-05
2.0910757e-05
2.0459369e-05
2.1109391e-05
2.1233773e-05
2.1251046e-05
2.123377e-05
2.1109365e-05
2.5733732e-07
3.6173073e-07
4.2877984e-07
3.6173125e-07
2.5733799e-07
6.2657805e-06
8.0147792e-06
8.6522385e-06
8.0147916e-06
6.2657986e-06
1.4125711e-05
1.6234817e-05
1.6950352e-05
1.6234799e-05
1.4125705e-05
1.8957839e-05
2.0148324e-05
2.041588e-05
2.0148288e-05
1.8957806e-05
2.0741036e-05
2.1104258e-05
2.1156364e-05
2.1104256e-05
2.0740942e-05
9.8554215e-08
1.291094e-07
1.3922532e-07
1.2910897e-07
9.8553488e-08
3.4162114e-06
5.2465067e-06
5.909867e-06
5.2464947e-06
3.4161907e-06
1.1103713e-05
1.3589068e-05
1.4408955e-05
1.3589043e-05
1.1103678e-05
1.7104356e-05
1.8970933e-05
1.9435352e-05
1.8970929e-05
1.7104327e-05
2.0049481e-05
2.0837715e-05
2.0960782e-05
2.0837723e-05