/*--------------------------------*- C++ -*----------------------------------*\
| =========                 |                                                 |
| \\      /  F ield         | OpenFOAM: The Open Source CFD Toolbox           |
|  \\    /   O peration     | Version:  2.3.x                                 |
|   \\  /    A nd           | Web:      www.OpenFOAM.org                      |
|    \\/     M anipulation  |                                                 |
\*---------------------------------------------------------------------------*/
FoamFile
{
    version     2.0;
    format      ascii;
    class       volScalarField;
    location    "0.03";
    object      concSource;
}
// * * * * * * * * * * * * * * * * * * * * * * * * * * * * * * * * * * * * * //

dimensions      [0 -3 -1 0 1 0 0];

internalField   nonuniform List<scalar> 
10000
(
0.0030750656
0.0008349429
0.00049851177
0.00083494209
0.0030750627
4.1397297e-07
1.6904921e-07
1.2922799e-07
1.6904911e-07
4.1397276e-07
3.7544262e-08
3.0740943e-08
2.9307828e-08
3.0740946e-08
3.7544285e-08
2.5867051e-08
2.5080634e-08
2.4940795e-08
2.5080634e-08
2.5867052e-08
2.4705584e-08
2.4607632e-08
2.4596828e-08
2.4607632e-08
2.4705584e-08
0.036386637
0.035671564
0.034600492
0.03567158
0.036386654
0.00036856395
5.4452729e-05
2.7067911e-05
5.4453632e-05
0.0003685713
7.2324344e-07
1.6790624e-07
1.1518815e-07
1.6791914e-07
7.2332202e-07
4.9431653e-08
3.3102692e-08
3.0679371e-08
3.3102958e-08
4.9432593e-08
2.7694004e-08
2.5478932e-08
2.521394e-08
2.5478945e-08
2.7693983e-08
0.010715484
0.012168976
0.013118448
0.012168958
0.010715461
0.0037475752
0.0010180137
0.00056739629
0.0010179954
0.0037475056
1.2816217e-05
1.7182668e-06
9.1462407e-07
1.7181804e-06
1.2815468e-05
1.7219725e-07
6.1571067e-08
4.96197e-08
6.1567661e-08
1.7218586e-07
3.6801079e-08
2.7936415e-08
2.6962408e-08
2.7936197e-08
3.6796898e-08
0.0051550115
0.0058997248
0.0060385729
0.0058997358
0.0051550473
0.0080578009
0.0041007073
0.00282564
0.0041006412
0.0080576622
0.00010740976
1.3130225e-05
6.2391165e-06
1.3129355e-05
0.00010739978
7.3018744e-07
1.4756672e-07
1.009605e-07
1.4755878e-07
7.3010606e-07
6.065059e-08
3.3561146e-08
3.0834817e-08
3.3560819e-08
6.0645894e-08
0.0028001705
0.0037467854
0.0040351461
0.0037468023
0.0028001999
0.0084723679
0.0067872918
0.0056690869
0.0067872958
0.0084723896
0.00042199106
6.4328151e-05
3.0993745e-05
6.4326527e-05
0.00042197608
2.9786746e-06
4.0689781e-07
2.3931243e-07
4.0689192e-07
2.978554e-06
1.1716654e-07
4.4947747e-08
3.82887e-08
4.4948477e-08
1.1716776e-07
0.0016070175
0.0022981945
0.002608382
0.0022982045
0.0016070343
0.0071366897
0.007119415
0.0067909986
0.0071194297
0.0071367163
0.0010115321
0.000203158
0.00010471212
0.00020315405
0.0010115056
1.0138972e-05
1.1254334e-06
5.9104688e-07
1.1253984e-06
1.0138437e-05
2.4741093e-07
6.6028301e-08
5.1453491e-08
6.6026908e-08
2.4740412e-07
0.0010253194
0.0014243588
0.001638027
0.0014243623
0.0010253269
0.0059031904
0.0062594204
0.0063299026
0.0062594436
0.0059032233
0.001785192
0.00046604045
0.00025965361
0.00046603864
0.0017851794
2.7891337e-05
2.9023601e-06
1.4099436e-06
2.9023173e-06
2.7890671e-05
5.2846769e-07
1.0260707e-07
7.2723959e-08
1.0260454e-07
5.2845876e-07
0.00071500837
0.00094723676
0.0010704397
0.00094723535
0.00071500936
0.0049817458
0.0053620214
0.0054799414
0.0053620428
0.0049817681
0.0025922481
0.00085612904
0.00051539021
0.00085613804
0.002592266
6.3807261e-05
6.8358497e-06
3.1749811e-06
6.8358884e-06
6.3807497e-05
1.1040613e-06
1.6496303e-07
1.0640268e-07
1.6496117e-07
1.1040649e-06
0.00052370966
0.00067988291
0.00075192427
0.00067988034
0.00052370854
0.0042331984
0.0046834103
0.0047786039
0.0046834246
0.004233211
0.0033054274
0.0013461467
0.0008720885
0.0013461688
0.0033054613
0.00012596318
1.4752734e-05
6.734451e-06
1.4752906e-05
0.00012596377
2.2269236e-06
2.7167071e-07
1.6014484e-07
2.7166275e-07
2.2268663e-06
0.00039186484
0.00051394094
0.000562741
0.00051393762
0.00039186169
0.003574947
0.0041465857
0.004252391
0.004146593
0.0035749464
0.0038459705
0.001885181
0.0013074201
0.0018852253
0.0038460358
0.00022166232
2.9324788e-05
1.3441792e-05
2.9325936e-05
0.00022166942
4.3227188e-06
4.5534044e-07
2.4728702e-07
4.5534858e-07
4.3228251e-06
0.0002970573
0.00039913397
0.00043766542
0.0003991313
0.00029705464
0.0029987721
0.0036730159
0.0038176975
0.0036730166
0.0029987636
0.0041968712
0.0024152871
0.0017832964
0.0024153364
0.0041969207
0.00035458841
5.3883807e-05
2.5212698e-05
5.3885874e-05
0.00035459757
8.025189e-06
7.6855628e-07
3.889169e-07
7.6856642e-07
8.0252839e-06
0.00022720554
0.00031368064
0.00034723324
0.00031367802
0.0002272028
0.0025011855
0.0032273785
0.0034197289
0.0032273737
0.0025011708
0.004368496
0.0028808249
0.0022534661
0.0028808863
0.0043685475
0.00052473184
9.2068978e-05
4.4439743e-05
9.2074056e-05
0.00052475364
1.4199614e-05
1.2942242e-06
6.1805809e-07
1.2943047e-06
1.4200477e-05
0.00017529605
0.00024823473
0.00027796003
0.0002482327
0.00017529409
0.0020802489
0.002811071
0.0030377769
0.0028110613
0.0020802329
0.0043921368
0.0032484455
0.0026720587
0.0032484938
0.0043921601
0.00072793193
0.0001469442
7.3703598e-05
0.0001469512
0.00072795606
2.3917636e-05
2.1545987e-06
9.8400316e-07
2.1547213e-06
2.3918923e-05
0.00013653328
0.00019728208
0.00022352857
0.00019728032
0.00013653167
0.0017307498
0.0024289387
0.002674626
0.0024289249
0.0017307326
0.0043083556
0.0035040977
0.0030126529
0.0035041333
0.0043083605
0.00095732016
0.0002208059
0.0001154635
0.00022081632
0.0009573521
3.8414203e-05
3.5240321e-06
1.559503e-06
3.5242935e-06
3.841695e-05
0.00010740377
0.00015731231
0.00018018785
0.00015731116
0.00010740292
0.0014437632
0.0020852377
0.0023353202
0.0020852227
0.0014437489
0.0041535593
0.0036499301
0.0032607803
0.0036499335
0.0041535304
0.0012045123
0.00031479592
0.00017175595
0.00031480508
0.0012045301
5.9020934e-05
5.6412292e-06
2.4484552e-06
5.6415033e-06
5.9023581e-05
8.5333836e-05
0.00012589812
0.00014547058
0.00012589747
8.5333508e-05
0.0012091508
0.0017825598
0.0020245301
0.0017825459
0.0012091402
0.0039553469
0.0037010584
0.0034154761
0.0037010342
0.0039552967
0.0014603735
0.00042888158
0.00024402471
0.00042888716
0.0014603718
8.7066011e-05
8.8168265e-06
3.7932227e-06
8.8170818e-06
8.7068092e-05
6.8439404e-05
0.00010122953
0.00011768251
0.0001012295
6.8439715e-05
0.0010171522
0.0015210531
0.0017461657
0.0015210434
0.0010171479
0.0037326227
0.0036779624
0.0034861504
0.003677909
0.0037325553
0.0017157063
0.00056179347
0.00033287206
0.00056178688
0.001715662
0.00012378256
1.3438601e-05
5.7834825e-06
1.3438408e-05
0.00012377983
5.5359964e-05
8.1875431e-05
9.5515548e-05
8.1875907e-05
5.5360702e-05
0.00085933319
0.0012984858
0.0015020223
0.0012984822
0.00085933487
0.0034977815
0.003601296
0.0034885823
0.0036012285
0.0034977124
0.0019617248
0.00071112955
0.00043801364
0.00071110643
0.0019616363
0.00017015651
1.9959507e-05
8.6567958e-06
1.9958506e-05
0.00017014629
4.5116299e-05
6.6676794e-05
7.7891558e-05
6.6677699e-05
4.5117419e-05
0.00072879575
0.0011109178
0.0012915487
0.0011109211
0.00072880392
0.0032588715
0.0034886598
0.0034400609
0.0034885882
0.0032588117
0.0021909112
0.00087373968
0.00055839434
0.00087369296
0.0021907716
0.00022694291
2.8903885e-05
1.2708841e-05
2.8901189e-05
0.00022691904
3.7004687e-05
5.4701395e-05
6.3903397e-05
5.4702535e-05
3.7005981e-05
0.0006200769
0.00095354318
0.0011122914
0.00095355208
0.00062008971
0.0030211546
0.003353174
0.003356042
0.003353111
0.0030211166
0.0023968653
0.0010456536
0.00069207828
0.0010455846
0.0023966941
0.0002944555
4.0817908e-05
1.8276279e-05
4.081297e-05
0.0002944163
3.0515275e-05
4.5198581e-05
5.2773717e-05
4.5199818e-05
3.0516693e-05
0.00052895531
0.00082146089
0.00096059923
0.000821474
0.0005289723
0.0027883847
0.0032040437
0.0032488483
0.0032039968
0.0027883733
0.0025752135
0.0012228962
0.00083677504
0.001222806
0.0025750235
0.00037279072
5.63031e-05
2.5757701e-05
5.629493e-05
0.0003727324
2.5282661e-05
3.7597284e-05
4.3877293e-05
3.759849e-05
2.5284053e-05
0.00045228196
0.00071026221
0.00083246243
0.00071027777
0.00045230098
0.0025629188
0.0030469076
0.0031268947
0.0030468833
0.0025629361
0.0027226461
0.0014008514
0.00098938835
0.0014007511
0.0027224696
0.00046143804
7.5902601e-05
3.5561041e-05
7.5891155e-05
0.00046136492
2.1023435e-05
3.1470273e-05
3.6733497e-05
3.1471367e-05
2.1024724e-05
0.00038731416
0.00061633293
0.00072435795
0.00061634917
0.00038733371
0.0023468297
0.0028854114
0.0029956613
0.0028854081
0.0023468716
0.0028381351
0.0015756219
0.0011469246
0.0015755209
0.0028379937
0.00055985429
0.0001002066
4.8155196e-05
0.00010019174
0.00055976988
1.7539307e-05
2.6473366e-05
3.0930707e-05
2.6474303e-05
1.7540462e-05
0.00033214696
0.00053621492
0.00063230721
0.0005362306
0.0003321664
0.0021420069
0.0027219055
0.0028583858
0.0027219228
0.0021420765
0.0029210564
0.0017427115
0.0013056992
0.0017426244
0.00292097
0.00066669725
0.00012963073
6.3955955e-05
0.00012961378
0.00066661334
1.467558e-05
2.2358685e-05
2.6174446e-05
2.2359388e-05
1.4676551e-05
0.00028520781
0.00046739954
0.0005534545
0.00046741244
0.00028522564
0.0019497188
0.0025583171
0.0027177855
0.0025583466
0.0019498025
0.0029729646
0.0018991271
0.0014625675
0.0018990632
0.0029729395
0.00078095654
0.00016467032
8.3450612e-05
0.00016465267
0.00078088264
1.2309994e-05
1.8951247e-05
2.2234718e-05
1.8951791e-05
1.2310734e-05
0.0002451403
0.00040810308
0.00048531302
0.00040811434
0.000245155
0.0017698221
0.0023965772
0.0025745097
0.002396624
0.0017699073
0.0029950104
0.0020410755
0.0016139431
0.0020410431
0.0029950453
0.00090064321
0.00020549567
0.00010697766
0.00020548017
0.00090059342
1.0346707e-05
1.6112556e-05
1.8963686e-05
1.6112918e-05
1.0347258e-05
0.00021085169
0.00035682978
0.0004264931
0.00035683834
0.00021086345
0.0016025202
0.0022383642
0.0024321076
0.0022384147
0.0016026024
0.0029904986
0.0021667326
0.0017570227
0.0021667314
0.0029905879
0.001024621
0.00025245302
0.00013499587
0.00025244202
0.0010246026
8.7148414e-06
1.3730229e-05
1.6221113e-05
1.3730451e-05
8.7151849e-06
0.00018151536
0.00031222413
0.00037526617
0.00031223029
0.00018152343
0.0014479013
0.0020836549
0.0022899932
0.0020837058
0.0014479705
0.002961764
0.0022736717
0.0018883989
0.002273703
0.0029618921
0.0011503224
0.00030537694
0.00016766351
0.00030537345
0.0011503441
7.354472e-06
1.1721743e-05
1.3905175e-05
1.1721862e-05
7.3546276e-06
0.00015639229
0.00027332809
0.00033042198
0.00027333196
0.00015639665
0.0013058743
0.0019337669
0.002149215
0.0019338076
0.0013059234
0.0029129557
0.0023618898
0.0020068928
0.0023619432
0.0029130966
0.0012766721
0.00036444306
0.00020539018
0.00036444909
0.001276733
6.217378e-06
1.0019735e-05
1.1939175e-05
1.0019789e-05
6.2173994e-06
0.00013484588
0.00023927711
0.00029100328
0.00023927942
0.0001348474
0.0011757358
0.0017888266
0.0020101495
0.0017888587
0.0011757666
0.002846031
0.0024297756
0.0021097972
0.0024298467
0.0028461686
0.0014010072
0.00042915206
0.00024807447
0.00042916818
0.0014011021
5.2653965e-06
8.5778491e-06
1.0264557e-05
8.5778e-06
5.2653139e-06
0.00011636919
0.0002095487
0.00025631415
0.00020954849
0.00011636829
0.0010571996
0.001650582
0.0018743425
0.001650599
0.0010572101
0.0027652074
0.0024789383
0.0021973161
0.0024790143
0.0027653224
0.0015225571
0.00049947602
0.00029607543
0.00049950314
0.0015226772
4.4659132e-06
7.3511429e-06
8.8339573e-06
7.3510454e-06
4.4657829e-06
0.00010048914
0.00018350912
0.00022573024
0.00018350756
0.00010048695
0.00094926523
0.0015188619
0.0017421741
0.001518868
0.00094926204
0.0026719311
0.0025086947
0.0022673545
0.0025087661
0.0026720172
0.001638515
0.00057448269
0.00034894036
0.00057451721
0.0016386457
3.7941397e-06
6.3074522e-06
7.6105076e-06
6.3073218e-06
3.7939742e-06
8.6855276e-05
0.00016075091
0.00019880083
0.00016074827
8.6852046e-05
0.00085158225
0.0013947882
0.0016151864
0.0013947825
0.00085156595
0.0025702373
0.0025218618
0.0023216563
0.0025219212
0.0025702862
0.0017486552
0.00065418553
0.00040697541
0.00065422751
0.001748787
3.2274663e-06
5.4166369e-06
6.5611979e-06
5.4165172e-06
3.2273064e-06
7.5109943e-05
0.00014080932
0.00017503721
0.00014080667
7.5106599e-05
0.00076300875
0.001277893
0.0014932797
0.0012778828
0.00076298669
0.0024608349
0.0025179643
0.0023587702
0.0025180065
0.0024608506
0.0018501834
0.00073725905
0.00046942005
0.00073730056
0.0018502979
2.7497711e-06
4.6576398e-06
5.6624758e-06
4.6575186e-06
2.7496116e-06
6.5013686e-05
0.00012340392
0.00015414512
0.00012340101
6.5010167e-05
0.00068323684
0.0011690778
0.0013778544
0.0011690616
0.00068320932
0.0023474758
0.0025005438
0.0023814571
0.0025005689
0.0023474596
0.0019435021
0.00082363914
0.00053653438
0.0008236826
0.0019436002
2.3451462e-06
4.0082627e-06
4.889881e-06
4.0081589e-06
2.3450226e-06
5.6295175e-05
0.00010815289
0.00013571506
0.00010815026
5.6292334e-05
0.0006111106
0.0010674822
0.0012683319
0.0010674644
0.00061108563
0.0022301805
0.0024690628
0.0023885397
0.0024690696
0.0022301445
0.0020258493
0.00091166736
0.00060725767
0.00091170132
0.002025909
2.0030217e-06
3.4540266e-06
4.2278563e-06
3.4539301e-06
2.0029136e-06
4.8790991e-05
9.4850058e-05
0.00011954781
9.4847517e-05
4.8788426e-05
0.00054638859
0.00097374452
0.0011659283
0.00097372459
0.00054636396
0.0021123736
0.0024274187
0.0023834766
0.0024274119
0.0021123234
0.0020984017
0.0010013564
0.00068166465
0.0010013879
0.002098442
1.7118925e-06
2.978195e-06
3.6571289e-06
2.978128e-06
1.7118196e-06
4.229022e-05
8.3176797e-05
0.00010527785
8.317495e-05
4.2288425e-05
0.00048792982
0.00088671438
0.0010695671
0.00088669773
0.00048791083
0.0019933544
0.0023747524
0.0023651237
0.0023747338
0.001993301
0.0021585789
0.0010909004
0.00075861317
0.0010909164
0.0021585785
1.4650845e-06
2.5718075e-06
3.167829e-06
2.5717503e-06
1.4650226e-06
3.6688234e-05
7.3008217e-05
9.2781792e-05
7.3006602e-05
3.6686683e-05
0.00043562241
0.00080703674
0.00098034681
0.00080702108
0.00043560524
0.0018763263
0.0023150935
0.0023372856
0.0023150711
0.0018762723
0.0022081455
0.0011801909
0.00083795966
0.0011802058
0.0022081382
1.2541027e-06
2.2217442e-06
2.7447616e-06
2.2217098e-06
1.2540671e-06
3.1818939e-05
6.4069962e-05
8.1740218e-05
6.4068943e-05
3.1818011e-05
0.0003883826
0.00073333412
0.00089687286
0.00073332279
0.0003883712
0.00175999
0.0022471388
0.0022985813
0.002247112
0.0017599428
0.0022447417
0.0012674989
0.00091859742
0.0012674963
0.0022447027
1.0749584e-06
1.9225007e-06
2.3819751e-06
1.922471e-06
1.0749269e-06
2.7621544e-05
5.6289784e-05
7.2087412e-05
5.6288906e-05
2.762073e-05
0.00034624379
0.00066625149
0.00082019369
0.0006662416
0.00034623383
0.0016474391
0.0021749489
0.0022529717
0.0021749254
0.0016473982
0.0022706169
0.0013525608
0.0010000057
0.0013525618
0.0022705876
9.2110667e-07
1.6635185e-06
2.0670211e-06
1.663504e-06
9.2109196e-07
2.3959981e-05
4.9427911e-05
6.3536481e-05
4.942746e-05
2.3959587e-05
0.00030816227
0.00060426169
0.00074865389
0.00060425566
0.00030815678
0.0015368155
0.0020966973
0.002198708
0.0020966746
0.0015367847
0.0022836534
0.0014339941
0.0010813894
0.0014339797
0.0022836043
7.9039261e-07
1.4419896e-06
1.7969167e-06
1.4419753e-06
7.9037673e-07
2.0805266e-05
4.345967e-05
5.6072159e-05
4.3459248e-05
2.080486e-05
0.00027430739
0.00054811508
0.00068335555
0.00054810995
0.00027430228
0.001431198
0.0020165089
0.0021398513
0.0020164929
0.001431174
0.00228651
0.0015112332
0.00116169
0.001511229
0.0022864837
6.7762404e-07
1.2492808e-06
1.561298e-06
1.2492755e-06
6.7761779e-07
1.8043258e-05
3.8174625e-05
4.9436274e-05
3.8174463e-05
1.8043099e-05
0.00024367698
0.00049620498
0.00062247282
0.00049620253
0.00024367472
0.0013282325
0.001932009
0.0020741943
0.0019319955
0.0013282168
0.0022772116
0.0015834397
0.001240682
0.0015834238
0.0022771738
5.8185234e-07
1.0844388e-06
1.3592885e-06
1.084431e-06
5.8184231e-07
1.5666855e-05
3.3583383e-05
4.3653038e-05
3.3583167e-05
1.5666612e-05
0.00021655068
0.00044940323
0.00056720836
0.00044940085
0.00021654789
0.0012310539
0.0018474723
0.002005953
0.0018474656
0.0012310424
0.002258812
0.0016496897
0.001316624
0.0016496893
0.0022588024
4.9884868e-07
9.4023585e-07
1.1820891e-06
9.4023269e-07
4.9884389e-07
1.3578343e-05
2.9498615e-05
3.848818e-05
2.9498537e-05
1.3578233e-05
0.00019196744
0.00040605754
0.00051562059
0.00040605665
0.00019196621
0.0011368681
0.0017599553
0.0019323989
0.0017599503
0.0011368613
0.0022293193
0.0017098213
0.0013900908
0.0017098125
0.0022293012
4.2845529e-07
8.1698544e-07
1.0302954e-06
8.1697905e-07
4.2844637e-07
1.1785527e-05
2.5956724e-05
3.3995914e-05
2.595656e-05
1.1785316e-05
0.00017029278
0.00036716197
0.0004690361
0.00036716057
0.00017029057
0.0010489122
0.0016739811
0.0018580091
0.0016739809
0.0010489063
0.0021922208
0.00176255
0.001458569
0.001762559
0.0021922288
3.6716028e-07
7.0852719e-07
8.9632638e-07
7.085231e-07
3.6715427e-07
1.0203609e-05
2.2789377e-05
2.9962745e-05
2.2789277e-05
1.0203468e-05
0.00015060857
0.00033104561
0.00042544629
0.0003310448
0.0001506071
0.00096401097
0.0015860188
0.0017794761
0.0015860182
0.00096400628
0.0021453022
0.0018084182
0.0015235869
0.0018084204
0.0021453007
3.1530859e-07
6.1600802e-07
7.8177647e-07
6.160011e-07
3.1529935e-07
8.8501492e-06
2.0050915e-05
2.6464781e-05
2.0050732e-05
8.8499226e-06
0.00013334261
0.00029881049
0.00038630283
0.00029880894
0.00013334016
0.00088552705
0.0015009262
0.0017016551
0.001500928
0.00088552103
0.0020925652
0.0018458539
0.0015818464
0.0018458725
0.002092583
2.69938e-07
5.3409223e-07
6.8002133e-07
5.3408654e-07
2.6993061e-07
7.6508008e-06
1.758871e-05
2.3306227e-05
1.7588555e-05
7.6506159e-06
0.00011762119
0.00026878338
0.00034955719
0.00026878193
0.00011761908
0.00080996398
0.0014145648
0.0016206005
0.0014145645
0.00080995704
0.0020313495
0.0018760167
0.0016358781
0.0018760288
0.0020313556
2.316972e-07
4.6444204e-07
5.9328634e-07
4.6443448e-07
2.3168784e-07
6.6291156e-06
1.5468642e-05
2.0577788e-05
1.5468428e-05
6.6288758e-06
0.00010391322
0.00024215068
0.00031676923
0.00024214857
0.00010391039
0.00074081493
0.0013321881
0.0015416513
0.0013321882
0.0007408059
0.0019662851
0.0018972078
0.0016816877
0.001897232
0.0019663027
1.9806302e-07
4.0237574e-07
5.1571359e-07
4.0236903e-07
1.9805508e-07
5.7195771e-06
1.3551329e-05
1.8098899e-05
1.3551131e-05
5.7193682e-06
9.1392157e-05
0.0002172479
0.00028586961
0.00021724571
9.1389521e-05
0.00067432542
0.0012490287
0.0014601591
0.0012490259
0.00067431475
0.0018940405
0.0019109962
0.0017227258
0.0019110138
0.0018940451
1.6985156e-07
3.4984726e-07
4.4989308e-07
3.4983966e-07
1.6984278e-07
4.949006e-06
1.1909361e-05
1.5969087e-05
1.1909132e-05
4.9487716e-06
8.0549678e-05
0.00019532162
0.00025850323
0.00019531901
8.0546651e-05
0.00061410706
0.0011707789
0.0013820318
0.0011707755
0.00061409465
0.0018200023
0.0019158035
0.0017545014
0.0019158279
0.0018200117
1.4490135e-07
3.0271802e-07
3.9060328e-07
3.0271119e-07
1.4489378e-07
4.2595661e-06
1.0415111e-05
1.4021348e-05
1.0414898e-05
4.2593587e-06
7.0609276e-05
0.00017472896
0.00023259665
0.00017472629
7.0606436e-05
0.00055621384
0.00109204
0.0013018616
0.0010920338
0.00055620004
0.0017399628
0.0019132924
0.0017811661
0.0019133103
0.0017399601
1.2410287e-07
2.6307872e-07
3.4060769e-07
2.6307172e-07
1.2409522e-07
3.6793934e-06
9.1442968e-06
1.2359511e-05
9.1440761e-06
3.6791819e-06
6.2069975e-05
0.00015675345
0.00020985366
0.0001567506
6.2067026e-05
0.00050435006
0.0010189612
0.0012261817
0.0010189541
0.00050433537
0.0016601838
0.0019023196
0.0017980358
0.0019023394
0.0016601817
1.055986e-07
2.2724959e-07
2.9522513e-07
2.2724333e-07
1.05592e-07
3.157435e-06
7.9798189e-06
1.0828845e-05
7.9796155e-06
3.1572483e-06
5.420724e-05
0.00013978319
0.00018821053
0.00013978038
5.4204504e-05
0.00045444253
0.00094551985
0.0011487832
0.00094551067
0.00045442713
0.0015754134
0.0018842483
0.0018096187
0.0018842623
0.0015754013
9.0291073e-08
1.973513e-07
2.5726055e-07
1.9734531e-07
9.0284827e-08
2.7217673e-06
6.9978843e-06
9.5341243e-06
6.9976877e-06
2.7215891e-06
4.7514853e-05
0.00012511745
0.00016940486
0.00012511466
4.7512199e-05
0.00041025285
0.00087831862
0.0010768539
0.00087830886
0.00041023743
0.0014928798
0.0018587279
0.0018114242
0.0018587403
0.0014928664
7.6582657e-08
1.7010308e-07
2.2250568e-07
1.7009778e-07
7.6577299e-08
2.3274068e-06
6.0910882e-06
8.3320529e-06
6.09091e-06
2.3272509e-06
4.1321621e-05
0.00011118536
0.00015139715
0.00011118269
4.1319201e-05
0.0003676441
0.00081074216
0.001003371
0.00081073118
0.00036762872
0.00140617
0.001826385
0.0018078748
0.0018263925
0.0014061496
6.5347405e-08
1.4758488e-07
1.9371806e-07
1.4758006e-07
6.5342565e-08
2.0014325e-06
5.3342712e-06
7.325924e-06
5.3341072e-06
2.0012907e-06
3.6106204e-05
9.9283834e-05
0.00013593596
9.9281309e-05
3.6103966e-05
0.0003303945
0.00074982491
0.00093617763
0.00074981378
0.00033037977
0.0013235315
0.0017880356
0.0017951155
0.0017880399
0.0013235096
5.5212386e-08
1.2686866e-07
1.671083e-07
1.2686446e-07
5.5208274e-08
1.7043286e-06
4.6290625e-06
6.3831513e-06
4.6289165e-06
1.7042061e-06
3.1251372e-05
8.789208e-05
0.00012101835
8.788973e-05
3.124937e-05
0.00029436379
0.00068840848
0.00086744728
0.00068839696
0.00029434967
0.0012373304
0.0017431226
0.0017769761
0.0017431232
0.0012373046
4.699794e-08
1.0994824e-07
1.4533054e-07
1.0994454e-07
4.6994353e-08
1.4615627e-06
4.0476623e-06
5.6039223e-06
4.0475325e-06
1.461455e-06
2.7213161e-05
7.8289683e-05
0.00010838565
7.828754e-05
2.7211371e-05
0.00026330407
0.0006339237
0.00080566764
0.00063391245
0.00026329101
0.0011568454
0.0016940046
0.0017507224
0.0016940017
0.0011568187
3.9526964e-08
9.4211417e-08
1.2497376e-07
9.4208237e-08
3.9523951e-08
1.2385632e-06
3.5001918e-06
4.8658557e-06
3.5000784e-06
1.2384713e-06
2.3428242e-05
6.9014158e-05
9.608423e-05
6.9012216e-05
2.3426671e-05
0.00023312784
0.00057873492
0.00074224619
0.00057872391
0.00023311573
0.0010732155
0.0016385012
0.0017190344
0.0016384957
0.0010731875
3.3551688e-08
8.1537688e-08
1.0855288e-07
8.1534953e-08
3.3549129e-08
1.058815e-06
3.0553531e-06
4.264892e-06
3.0552546e-06
1.0587364e-06
2.0324667e-05
6.1315359e-05
8.5832013e-05
6.1313629e-05
2.03233e-05
0.00020751976
0.00053062295
0.00068628364
0.00053061251
0.00020750883
0.00099672659
0.0015808845
0.0016808201
0.0015808763
0.00099669869
2.8066157e-08
6.9599168e-08
9.2999906e-08
6.9596862e-08
2.8064034e-08
8.9221342e-07
2.6312517e-06
3.6883509e-06
2.6311673e-06
8.9214739e-07
1.7392127e-05
5.3795671e-05
7.57352e-05
5.3794142e-05
1.7390949e-05
0.00018249397
0.00048154855
0.00062847477
0.00048153873
0.00018248412
0.00091732701
0.0015169243
0.0016370101
0.0015169146
0.00091729959
2.3747803e-08
6.014535e-08
8.0669955e-08
6.0143399e-08
2.3746037e-08
7.6007341e-07
2.2925596e-06
3.2271921e-06
2.2924875e-06
7.6001806e-07
1.5027266e-05
4.7665495e-05
6.7475186e-05
4.7664155e-05
1.5026261e-05
0.00016163114
0.00043959138
0.00057849459
0.00043958227
0.00016162242
0.00084626195
0.0014531781
0.0015887239
0.0014531666
0.00084623546
1.9740006e-08
5.1104043e-08
6.8806484e-08
5.1102427e-08
1.973856e-08
6.363043e-07
1.9648416e-06
2.7779215e-06
1.964781e-06
6.3625846e-07
1.2771005e-05
4.1596364e-05
5.9226276e-05
4.1595206e-05
1.2770154e-05
0.00014108615
0.00039638043
0.00052638624
0.00039637212
0.00014107849
0.00077234824
0.0013829401
0.0015344909
0.001382928
0.00077232329
1.6644024e-08
4.4088976e-08
5.9596625e-08
4.4087624e-08
1.6642842e-08
5.3999722e-07
1.7084948e-06
2.4261547e-06
1.7084436e-06
5.3995943e-07
1.098678e-05
3.6752763e-05
5.2624214e-05
3.675176e-05
1.0986065e-05
0.00012430564
0.00036024921
0.00048236444
0.00036024163
0.00012429897
0.00070773395
0.0013154504
0.0014782848
0.0013154375
0.0007077105
1.3733753e-08
3.725628e-08
5.0564333e-08
3.7255181e-08
1.37328e-08
4.4866749e-07
1.4559631e-06
2.0769676e-06
1.4559209e-06
4.4863669e-07
9.2646721e-06
3.187676e-05
4.5915796e-05
3.1875911e-05
9.2640782e-06
0.00010761957
0.00032255342
0.00043587145
0.00032254666
0.00010761383
0.00064019922
0.0012410645
0.0014154931
0.0012410515
0.00064017778
1.1537035e-08
3.2085926e-08
4.3730428e-08
3.2085011e-08
1.1536264e-08
3.7924204e-07
1.2633706e-06
1.8105944e-06
1.2633351e-06
3.7921693e-07
7.9347426e-06
2.8084019e-05
4.0686584e-05
2.8083289e-05
7.9342498e-06
9.4319164e-05
0.00029185153
0.00039764594
0.00029184545
9.4314233e-05
0.00058272934
0.0011721728
0.0013537137
0.0011721597
0.00058270959
9.4381991e-09
2.6934586e-08
3.6867138e-08
2.6933857e-08
9.4375878e-09
3.1234975e-07
1.0693581e-06
1.539904e-06
1.0693295e-06
3.1232964e-07
6.6314787e-06
2.4184637e-05
3.5254939e-05
2.418403e-05
6.6310763e-06
8.0912344e-05
0.00025925473
0.00035654744
0.0002592494
8.0908181e-05
0.00052206203
0.0010956346
0.0012842816
0.0010956216
0.00052204435
7.8989332e-09
2.3158023e-08
3.1840255e-08
2.3157419e-08
7.8984434e-09
2.6295267e-07
9.260468e-07
1.3400707e-06
9.2602281e-07
2.6293642e-07
5.6540417e-06
2.1247487e-05
3.1158286e-05
2.1246969e-05
5.6537108e-06
7.0540614e-05
0.00023355556
0.00032386959
0.00023355082
7.0537076e-05
0.00047208405
0.0010276273
0.0012194376
0.0010276148
0.00047206805
6.3957943e-09
1.9282921e-08
2.6633756e-08
1.928245e-08
6.3954149e-09
2.1432485e-07
7.7740589e-07
1.1307008e-06
7.7738691e-07
2.1431213e-07
4.6759989e-06
1.8142274e-05
2.6777247e-05
1.8141851e-05
4.6757346e-06
5.9878244e-05
0.00020558926
0.00028783065
0.00020558517
5.987532e-05
0.00041840723
0.00095068645
0.0011452004
0.00095067425
0.00041839316
5.3347517e-09
1.655919e-08
2.2981084e-08
1.6558803e-08
5.3344512e-09
1.7976924e-07
6.7217264e-07
9.827017e-07
6.7215688e-07
1.7975907e-07
3.9703898e-06
1.5900957e-05
2.3613793e-05
1.59006e-05
3.9701749e-06
5.1950305e-05
0.00018447389
0.00026041756
0.00018447031
5.1947852e-05
0.00037604659
0.00088581906
0.001079993
0.00088580755
0.00037603409
4.2645075e-09
1.3646697e-08
1.9032414e-08
1.3646405e-08
4.2642829e-09
1.4464084e-07
5.5844603e-07
8.2088033e-07
5.5843391e-07
1.4463314e-07
3.2415269e-06
1.3434602e-05
2.0087549e-05
1.3434317e-05
3.2413605e-06
4.3540919e-05
0.00016061499
0.00022898969
0.00016061196
4.3538946e-05
0.00032911754
0.0008097937
0.0010024789
0.00080978276
0.0003291068
3.5508513e-09
1.1721554e-08
1.6429526e-08
1.1721319e-08
3.5506771e-09
1.2106992e-07
4.8277185e-07
7.1346403e-07
4.8276196e-07
1.2106389e-07
2.7453661e-06
1.1762344e-05
1.7697734e-05
1.1762107e-05
2.7452333e-06
3.7650893e-05
0.00014372369
0.00020660207
0.00014372109
3.764927e-05
0.00029442045
0.00075044439
0.00093997177
0.00075043425
0.00029441111
2.7887303e-09
9.5232516e-09
1.3420727e-08
9.5230838e-09
2.7886081e-09
9.5696659e-08
3.9541385e-07
5.8784354e-07
3.9540658e-07
9.5692352e-08
2.202454e-06
9.797328e-06
1.4849685e-05
9.7971464e-06
2.2023563e-06
3.102558e-05
0.00012334568
0.00017916123
0.00012334355
3.102433e-05
0.00025351739
0.00067583342
0.00085992753
0.0006758242
0.00025350965
2.3315364e-09
8.2171852e-09
1.163797e-08
8.2170556e-09
2.3314454e-09
8.0401608e-08
3.4324549e-07
5.1300393e-07
3.4323975e-07
8.039835e-08
1.8710964e-06
8.604197e-06
1.3121237e-05
8.6040495e-06
1.8710207e-06
2.6881245e-05
0.00011050006
0.00016177437
0.00011049826
2.6880242e-05
0.00022677698
0.00062504399
0.00080414915
0.00062503561
0.0002267704
1.7743367e-09
6.5172634e-09
9.2901811e-09
6.5171823e-09
1.7742818e-09
6.1577898e-08
2.7448251e-07
4.1312172e-07
2.7447871e-07
6.1575859e-08
1.4556251e-06
6.9998067e-06
1.0765012e-05
6.9997021e-06
1.4555752e-06
2.1518717e-05
9.2670911e-05
0.00013724318
9.2669536e-05
2.1518011e-05
0.00019022552
0.00055047677
0.00072028925
0.00055046966
0.00019022044
1.528674e-09
5.7487683e-09
8.2253374e-09
5.7487091e-09
1.5286349e-09
5.3293899e-08
2.4342061e-07
3.6783839e-07
2.4341769e-07
5.3292395e-08
1.2716214e-06
6.2685578e-06
9.6856635e-06
6.2684728e-06
1.2715829e-06
1.9098317e-05
8.4345578e-05
0.00012568743
8.4344401e-05
1.9097744e-05
0.00017308643
0.00051386316
0.00067833843
0.00051385671
0.00017308205
1.0443147e-09
4.1795782e-09
6.0370346e-09
4.179562e-09
1.0443039e-09
3.6674967e-08
1.7875237e-07
2.7288451e-07
1.7875122e-07
3.6674457e-08
8.9317754e-07
4.7046138e-06
7.356756e-06
4.7045698e-06
8.9316136e-07
1.3943988e-05
6.5810576e-05
9.9630449e-05
6.5809832e-05
1.3943692e-05
0.00013461552
0.00042675457
0.00057613396
0.00042674974
0.00013461274
0.0030750631
0.00083494285
0.00049851302
0.0008349448
0.0030750687
4.1397283e-07
1.6904913e-07
1.2922792e-07
1.6904926e-07
4.1397311e-07
3.7544285e-08
3.074094e-08
2.9307812e-08
3.0740927e-08
3.7544244e-08
2.5867052e-08
2.5080633e-08
2.4940792e-08
2.5080632e-08
2.5867047e-08
2.4705584e-08
2.4607631e-08
2.4596828e-08
2.4607631e-08
2.4705583e-08
0.036386652
0.035671575
0.034600471
0.035671549
0.036386626
0.00036857122
5.4453408e-05
2.7067314e-05
5.4452005e-05
0.00036856106
7.2332086e-07
1.6791734e-07
1.1518362e-07
1.6790116e-07
7.2323024e-07
4.9432572e-08
3.3102858e-08
3.0679177e-08
3.3102415e-08
4.9431142e-08
2.7693983e-08
2.5478931e-08
2.5213916e-08
2.547889e-08
2.7693921e-08
0.010715462
0.01216896
0.013118462
0.012168983
0.010715494
0.0037475031
0.0010179861
0.00056739483
0.0010179918
0.0037475214
1.2815467e-05
1.7181556e-06
9.1462047e-07
1.7181907e-06
1.2815596e-05
1.7218642e-07
6.1568433e-08
4.9621235e-08
6.1571891e-08
1.7219392e-07
3.6797172e-08
2.7936185e-08
2.6962399e-08
2.7936361e-08
3.6802327e-08
0.005155048
0.0058997387
0.0060385734
0.0058997329
0.0051550264
0.0080576609
0.0041006171
0.0028256153
0.0041006711
0.0080577632
0.00010739974
1.3129042e-05
6.2388928e-06
1.3129556e-05
0.00010740547
7.3010386e-07
1.4755406e-07
1.0095531e-07
1.4755642e-07
7.3013848e-07
6.0645386e-08
3.3559802e-08
3.0833169e-08
3.3559103e-08
6.0646574e-08
0.0028002005
0.0037468085
0.0040351538
0.0037467956
0.0028001819
0.008472392
0.0067872769
0.0056690554
0.0067872802
0.0084723702
0.00042197671
6.4325285e-05
3.0992775e-05
6.4326088e-05
0.0004219818
2.9785635e-06
4.068817e-07
2.3930336e-07
4.068761e-07
2.9785234e-06
1.1716809e-07
4.4948084e-08
3.8288259e-08
4.4946649e-08
1.1716134e-07
0.0016070343
0.002298211
0.0026083911
0.0022982023
0.0016070242
0.0071367199
0.0071194188
0.0067909819
0.0071194108
0.0071366952
0.0010115074
0.00020315071
0.00010470932
0.0002031533
0.001011518
1.0138479e-05
1.1253696e-06
5.9102279e-07
1.1253779e-06
1.0138588e-05