/*--------------------------------*- C++ -*----------------------------------*\
| =========                 |                                                 |
| \\      /  F ield         | OpenFOAM: The Open Source CFD Toolbox           |
|  \\    /   O peration     | Version:  2.3.x                                 |
|   \\  /    A nd           | Web:      www.OpenFOAM.org                      |
|    \\/     M anipulation  |                                                 |
\*---------------------------------------------------------------------------*/
FoamFile
{
    version     2.0;
    format      ascii;
    class       surfaceScalarField;
    location    "0.03";
    object      phi;
}
// * * * * * * * * * * * * * * * * * * * * * * * * * * * * * * * * * * * * * //

dimensions      [1 0 -1 0 0 0 0];

internalField   nonuniform List<scalar> 
29075
(
2.919526e-09
1.3645399e-07
1.3369096e-07
-5.6421473e-15
1.3987783e-09
1.3870809e-07
1.7473006e-07
-1.3987535e-09
1.3782275e-07
1.9100139e-07
-2.9195003e-09
1.3870805e-07
1.7473011e-07
1.3645395e-07
1.3369102e-07
7.8202233e-15
5.5467567e-09
1.3417468e-07
2.3345655e-07
1.4741093e-14
2.9459696e-09
1.2767491e-07
2.8824145e-07
-2.9459757e-09
1.2347377e-07
3.0846323e-07
-5.5467533e-09
1.2767483e-07
2.8824146e-07
1.3417455e-07
2.3345662e-07
1.9597101e-14
5.4248975e-09
9.2464483e-08
2.3666963e-07
4.8513025e-14
2.9072799e-09
8.3680303e-08
2.8381077e-07
-2.9073308e-09
7.9871453e-08
2.9983599e-07
-5.4249302e-09
8.3680483e-08
2.838105e-07
9.2464666e-08
2.3666931e-07
2.3064753e-14
3.8846387e-09
5.493861e-08
1.9768641e-07
4.4676997e-14
2.2107163e-09
4.748344e-08
2.3786092e-07
-2.2107306e-09
4.5593377e-08
2.5131587e-07
-3.8846406e-09
4.7483517e-08
2.3786101e-07
5.4938705e-08
1.9768652e-07
2.4091557e-14
3.0670794e-09
1.4977856e-07
3.9539772e-14
2.9799217e-08
2.0168039e-09
1.8754367e-07
2.3672022e-08
-2.0167877e-09
2.0035891e-07
2.4081944e-08
-3.0670503e-09
1.8754372e-07
2.3672031e-08
1.4977867e-07
2.7063231e-14
2.9799247e-08
-5.7673407e-10
5.1132261e-08
8.3135474e-08
-3.9669361e-14
-3.5371376e-10
6.1993781e-08
1.1251326e-07
3.5382398e-10
6.5280815e-08
1.2501303e-07
5.7681276e-10
6.1993893e-08
1.1251322e-07
5.1132411e-08
8.3135416e-08
6.9937758e-15
1.5561416e-09
9.7235399e-08
1.8579732e-07
-5.0784592e-14
1.2552909e-09
1.0371607e-07
2.4682001e-07
-1.2551856e-09
1.0541677e-07
2.7083775e-07
-1.5560476e-09
1.0371618e-07
2.4682004e-07
9.7235652e-08
1.8579731e-07
1.9555179e-14
3.3588968e-09
9.4751461e-08
2.3579472e-07
-5.2470839e-14
2.338228e-09
9.1098556e-08
2.9744895e-07
-2.3380674e-09
9.053585e-08
3.193932e-07
-3.3587595e-09
9.1098478e-08
2.9744889e-07
9.475152e-08
2.3579465e-07
3.0997848e-14
4.0622434e-09
6.8304285e-08
2.2007143e-07
-8.0045599e-14
2.687709e-09
6.0980772e-08
2.6935324e-07
-2.6874847e-09
6.095829e-08
2.8626862e-07
-4.0620327e-09
6.098061e-08
2.6935343e-07
6.8304302e-08
2.2007167e-07
3.3011622e-14
3.7550948e-09
1.7188708e-07
-1.478179e-13
4.2440815e-08
2.6687646e-09
2.160106e-07
3.3600173e-08
-2.668499e-09
2.3123267e-07
3.5421802e-08
-3.7547895e-09
2.1601054e-07
3.3600083e-08
1.7188738e-07
3.0879118e-14
4.2440765e-08
-6.3476861e-10
1.8406183e-08
6.5364109e-08
-4.8786846e-14
-4.5956719e-10
2.4613185e-08
8.7724875e-08
4.5970493e-10
2.6811944e-08
9.7281818e-08
6.3486354e-10
2.461334e-08
8.7724726e-08
1.8406389e-08
6.5363888e-08
3.1509237e-15
-1.0566723e-09
3.9906007e-08
1.6535428e-07
-1.1266362e-13
-2.7273104e-10
5.0693281e-08
2.1995597e-07
2.7313879e-10
5.4104918e-08
2.4299891e-07
1.0569739e-09
5.0693549e-08
2.19956e-07
3.9906493e-08
1.6535417e-07
1.2973738e-14
5.5425627e-10
5.1788016e-08
2.2335865e-07
-1.8847392e-13
6.290376e-10
5.6452638e-08
2.9161481e-07
-6.2857059e-10
5.7932114e-08
3.1682361e-07
-5.5396251e-10
5.6452476e-08
2.9161536e-07
5.1787981e-08
2.2335918e-07
2.4142041e-14
1.8619373e-09
4.3280925e-08
2.2671679e-07
-2.1162951e-13
1.3117982e-09
4.1313029e-08
2.8504299e-07
-1.3113132e-09
4.2339301e-08
3.0448455e-07
-1.861572e-09
4.1312818e-08
2.8504334e-07
4.3280725e-08
2.2671732e-07
3.3138174e-14
2.1697837e-09
1.844627e-07
-2.0860303e-13
2.8535733e-08
1.5165338e-09
2.3350283e-07
2.4474046e-08
-1.5160935e-09
2.5038004e-07
2.6224552e-08
-2.1694507e-09
2.3350274e-07
2.4473981e-08
1.8446307e-07
4.8490053e-14
2.8535541e-08
-4.0256189e-10
9.6929105e-09
5.6073737e-08
2.3866148e-14
-2.1494909e-10
1.3289332e-08
7.424793e-08
2.1490415e-10
1.5031798e-08
8.1820168e-08
4.0253124e-10
1.3289211e-08
7.4247889e-08
9.692783e-09
5.6073637e-08
-8.1124655e-16
-5.9799995e-10
2.4636651e-08
1.510086e-07
-6.1273203e-14
-4.029162e-10
3.1387301e-08
2.0166292e-07
4.0305325e-10
3.4343532e-08
2.2288121e-07
5.9812545e-10
3.1387149e-08
2.0166299e-07
2.4636473e-08
1.510086e-07
1.0965305e-14
4.0441003e-10
3.4427167e-08
2.1316383e-07
-1.0971272e-13
2.1167421e-10
3.9651701e-08
2.8354315e-07
-2.1142993e-10
4.1383076e-08
3.1020718e-07
-4.0422685e-10
3.9651588e-08
2.8354371e-07
3.4426951e-08
2.1316445e-07
2.5250774e-14
1.5526329e-09
3.1595335e-08
2.2799609e-07
-9.4684788e-14
9.4407336e-10
3.1106428e-08
2.9419682e-07
-9.4381989e-10
3.1457887e-08
3.1629763e-07
-1.5524586e-09
3.1106423e-08
2.9419715e-07
3.1595092e-08
2.2799668e-07
4.1810596e-14
1.9538249e-09
1.9400552e-07
-3.9430095e-14
2.0098726e-08
1.0160256e-09
2.4764219e-07
1.7904869e-08
-1.0158623e-09
2.6543832e-07
1.8431499e-08
-1.9537445e-09
2.4764216e-07
1.7904887e-08
1.9400566e-07
6.41229e-14
2.0098696e-08
3.1739886e-11
3.6382822e-09
5.2403636e-08
7.8819079e-14
1.3713031e-11
5.8124155e-09
6.8453542e-08
-1.3983428e-11
6.91351e-09
7.4934354e-08
-3.1900689e-11
5.8121975e-09
6.8453609e-08
3.638042e-09
5.2403705e-08
-1.0821463e-14
-1.0265129e-10
1.4303846e-08
1.404456e-07
8.6434188e-14
-1.0884527e-10
1.9724833e-08
1.877567e-07
1.0869322e-10
2.2241528e-08
2.0733565e-07
1.0248376e-10
1.9724589e-08
1.8775681e-07
1.4303411e-08
1.4044572e-07
-7.2484889e-15
4.3569222e-10
2.4155307e-08
2.0287663e-07
4.8542282e-14
2.9005552e-10
3.0045995e-08
2.7336762e-07
-2.9015525e-10
3.2326142e-08
3.0070277e-07
-4.3577978e-10
3.0045964e-08
2.7336796e-07
2.4155057e-08
2.0287702e-07
5.6162641e-15
1.5229237e-09
2.5567317e-08
2.250611e-07
5.3768644e-14
8.9051442e-10
2.747897e-08
2.9739625e-07
-8.9062617e-10
2.8090172e-08
3.2231474e-07
-1.523045e-09
2.7479048e-08
2.9739648e-07
2.5567197e-08
2.2506149e-07
1.1120613e-14
2.1119062e-09
1.9950104e-07
9.0621992e-14
1.7959802e-08
1.0479809e-09
2.5924007e-07
1.6945012e-08
-1.0481692e-09
2.7860228e-07
1.7022363e-08
-2.1120929e-09
2.5924009e-07
1.6945036e-08
1.9950101e-07
1.0885161e-14
1.7959737e-08
9.0579157e-11
1.7225974e-09
5.0590397e-08
6.3156096e-14
9.7461708e-11
2.4737188e-09
6.5972941e-08
-9.7624945e-11
3.068319e-09
7.2061122e-08
-9.0713481e-11
2.4737008e-09
6.5972997e-08
1.7225396e-09
5.0590468e-08
-1.4994861e-14
5.7354863e-11
8.2777679e-09
1.3383296e-07
1.2213641e-13
2.9971929e-12
1.1812808e-08
1.7847197e-07
-3.2448381e-12
1.3713507e-08
1.9669671e-07
-5.7538342e-11
1.1812777e-08
1.7847202e-07
8.2776904e-09
1.3383305e-07
-2.1408956e-14
3.113379e-10
1.6419731e-08
1.9442321e-07
1.1497214e-13
1.6560042e-10
2.1693494e-08
2.6363268e-07
-1.6582046e-10
2.3860478e-08
2.9088722e-07
-3.1150713e-10
2.1693631e-08
2.636328e-07
1.6419825e-08
1.9442339e-07
-1.4039427e-14
1.1793502e-09
1.9718435e-08
2.2058294e-07
1.0472828e-13
6.8543628e-10
2.2952769e-08
2.9663089e-07
-6.8558928e-10
2.3890175e-08
3.2365607e-07
-1.1795041e-09
2.2952997e-08
2.9663103e-07
1.9718655e-08
2.2058316e-07
-9.4619098e-15
1.8427523e-09
2.0194949e-07
1.0720643e-13
1.5427127e-08
9.5157112e-10
2.6740828e-07
1.5675744e-08
-9.5167818e-10
2.8874155e-07
1.5654148e-08
-1.8428893e-09
2.674084e-07
1.5675899e-08
2.019495e-07
-1.2051471e-14
1.5427296e-08
3.2003493e-11
9.9493636e-10
4.9563417e-08
4.0289135e-14
6.4645359e-11
1.2454329e-09
6.4694866e-08
-6.4758238e-11
1.5234557e-09
7.0667071e-08
-3.2087857e-11
1.2454348e-09
6.4694892e-08
9.9491852e-10
4.9563479e-08
-1.7386318e-14
6.7284267e-11
5.0478441e-09
1.2971265e-07
1.1485742e-13
4.0880046e-11
7.2663621e-09
1.7247744e-07
-4.122632e-11
8.5416379e-09
1.8976063e-07
-6.7481659e-11
7.2662814e-09
1.7247743e-07
5.0477977e-09
1.2971272e-07
-3.0784911e-14
2.2303826e-10
1.1070548e-08
1.8817733e-07
1.3645586e-13
7.6212161e-11
1.5398412e-08
2.5564745e-07
-7.6518724e-11
1.714501e-08
2.8243658e-07
-2.2325632e-10
1.5398421e-08
2.556474e-07
1.1070582e-08
1.8817738e-07
-2.7173432e-14
8.7400856e-10
1.4567374e-08
2.1621197e-07
1.3364983e-13
4.503453e-10
1.8212295e-08
2.9424068e-07
-4.505717e-10
1.9075181e-08
3.2262682e-07
-8.7421492e-10
1.8212432e-08
2.9424066e-07
1.4567548e-08
2.16212e-07
-2.0982687e-14
1.4846697e-09
2.0275379e-07
1.3730412e-13
1.2278269e-08
7.483767e-10
2.729223e-07
1.3434572e-08
-7.4855253e-10
2.9598509e-07
1.3328577e-08
-1.4848545e-09
2.7292245e-07
1.3434681e-08
2.0275377e-07
-2.0050198e-14
1.227844e-08
-7.1569731e-12
6.5164014e-10
4.8918916e-08
1.7962018e-14
2.7782228e-11
7.746839e-10
6.3885243e-08
-2.7868418e-11
9.3238938e-10
6.9790332e-08
7.0898613e-12
7.7467703e-10
6.3885257e-08
6.5162725e-10
4.8918964e-08
-2.1849558e-14
4.9926025e-11
3.2811281e-09
1.2703315e-07
8.442944e-14
4.2070897e-11
4.7749351e-09
1.6848505e-07
-4.235785e-11
5.6778014e-09
1.8509965e-07
-5.0091724e-11
4.7748499e-09
1.6848499e-07
3.2811214e-09
1.2703318e-07
-4.4561144e-14
1.8556567e-10
7.6960576e-09
1.8357672e-07
1.2267174e-13
4.9941789e-11
1.1183592e-08
2.4937442e-07
-5.0303599e-11
1.261958e-08
2.7559505e-07
-1.8579408e-10
1.1183536e-08
2.493742e-07
7.6961199e-09
1.8357664e-07
-4.8534778e-14
6.9288824e-10
1.0855216e-08
2.123598e-07
1.2264461e-13
3.1477603e-10
1.4494904e-08
2.9130748e-07
-3.1507032e-10
1.5264466e-08
3.2061178e-07
-6.9311417e-10
1.4494978e-08
2.9130727e-07
1.085539e-08
2.1235967e-07
-4.7137606e-14
1.2268198e-09
2.0264885e-07
1.221966e-13
9.7332161e-09
5.9375652e-10
2.7668219e-07
1.1368079e-08
-5.9400744e-10
3.0127469e-07
1.1162629e-08
-1.2270234e-09
2.7668232e-07
1.1368132e-08
2.0264883e-07
-5.3563599e-14
9.7333554e-09
-1.9099009e-11
4.748962e-10
4.8463121e-08
-2.0932372e-15
1.2383639e-11
5.7849906e-10
6.3275262e-08
-1.2425673e-11
6.9379493e-10
6.9121347e-08
1.9050458e-11
5.7849522e-10
6.3275286e-08
4.7487224e-10
4.8463164e-08
-2.1737556e-14
3.7157358e-11
2.3061315e-09
1.2516472e-07
4.3445082e-14
3.7719679e-11
3.3848277e-09
1.6567816e-07
-3.7962674e-11
4.0423423e-09
1.8182678e-07
-3.7284289e-11
3.384719e-09
1.6567809e-07
2.3060986e-09
1.2516472e-07
-4.9819276e-14
1.6545608e-10
5.6373063e-09
1.8008e-07
8.7759075e-14
4.8287633e-11
8.5109409e-09
2.4436547e-07
-4.8624002e-11
9.7016086e-09
2.700327e-07
-1.6566565e-10
8.5108029e-09
2.4436516e-07
5.6372894e-09
1.8007984e-07
-6.0237686e-14
5.8317466e-10
8.4292407e-09
2.089846e-07
9.5951516e-14
2.419137e-10
1.1968246e-08
2.8819143e-07
-2.4223029e-10
1.2687559e-08
3.1810997e-07
-5.8339795e-10
1.1968217e-08
2.8819102e-07
8.42929e-09
2.0898433e-07
-6.3143147e-14
1.0412742e-09
2.0200442e-07
9.9378152e-14
8.0322992e-09
5.0269702e-10
2.7918828e-07
1.0000732e-08
-5.0301069e-10
3.0521122e-07
9.7567403e-09
-1.0414956e-09
2.7918828e-07
1.0000735e-08
2.0200434e-07
-7.386526e-14
8.032363e-09
-2.257305e-11
3.7936764e-10
4.8106347e-08
-2.0775896e-14
6.6481701e-12
4.4834194e-10
6.2797699e-08
-6.6629894e-12
5.4064744e-10
6.8594011e-08
2.256229e-11
4.4832403e-10
6.2797737e-08
3.7933916e-10
4.8106403e-08
-1.6330381e-14
3.1916788e-11
1.732391e-09
1.2377977e-07
5.0943503e-15
2.7172118e-11
2.5279903e-09
1.6360325e-07
-2.7323246e-11
3.0055056e-09
1.7941642e-07
-3.1994974e-11
2.5278774e-09
1.6360321e-07
1.7323182e-09
1.237798e-07
-4.9935618e-14
1.5669483e-10
4.3115093e-09
1.7734414e-07
4.7085329e-14
5.4151644e-11
6.7057206e-09
2.4029029e-07
-5.4445493e-11
7.6955649e-09
2.6545123e-07
-1.5687816e-10
6.705517e-09
2.4028995e-07
4.3113771e-09
1.7734397e-07
-6.7775855e-14
4.9479267e-10
6.8015921e-09
2.0599966e-07
6.8076407e-14
2.0055842e-10
1.014037e-08
2.8505102e-07
-2.0092308e-10
1.08708e-08
3.1533622e-07
-4.9502949e-10
1.0140206e-08
2.8505044e-07
6.8014574e-09
2.059993e-07
-7.5827646e-14
8.939572e-10
2.0102302e-07
8.933079e-14
6.8889428e-09
4.4634489e-10
2.8072335e-07
9.0529124e-09
-4.4679436e-10
3.0807884e-07
8.8963123e-09
-8.9424197e-10
2.8072312e-07
9.0528145e-09
2.010228e-07
-8.9424005e-14
6.8888477e-09
-1.892149e-11
2.9632815e-10
4.7828974e-08
-3.3436675e-14
4.4472191e-12
3.6670261e-10
6.2407628e-08
-4.4276382e-12
4.3767483e-10
6.8165211e-08
1.8950053e-11
3.6668511e-10
6.2407674e-08
2.9632759e-10
4.7829034e-08
-7.4952472e-15
1.9984055e-11
1.3354718e-09
1.2272068e-07
-4.0278949e-14
2.0498373e-11
1.9941168e-09
1.6197533e-07
-2.0578501e-11
2.3450182e-09
1.7755015e-07
-2.0008794e-11
1.9940122e-09
1.6197532e-07
1.3354224e-09
1.2272073e-07
-3.4785757e-14
1.3371733e-10
3.3779891e-09
1.7516791e-07
-2.541122e-15
5.1409181e-11
5.3977154e-09
2.36969e-07
-5.1608409e-11
6.2196635e-09
2.6167961e-07
-1.3383425e-10
5.3975139e-09
2.3696868e-07
3.3778515e-09
1.7516777e-07
-6.0311957e-14
4.1308588e-10
5.570811e-09
2.0339373e-07
2.1714646e-14
1.6740707e-10
8.6526142e-09
2.820418e-07
-1.6770246e-10
9.3947078e-09
3.1249628e-07
-4.1327147e-10
8.6524066e-09
2.8204111e-07
5.5706178e-09
2.0339333e-07
-7.385279e-14
7.5731411e-10
1.9986134e-07
5.0052837e-14
5.9751255e-09
4.0023709e-10
2.8149534e-07
8.2376989e-09
-4.0065021e-10
3.1007022e-07
8.2042184e-09
-7.5756621e-10
2.8149487e-07
8.2375738e-09
1.9986097e-07
-8.5799954e-14
5.9749663e-09
-1.2552158e-11
2.2991733e-10
4.761165e-08
-4.1319409e-14
3.2971016e-12
2.8942842e-10
6.2102351e-08
-3.2417144e-12
3.3940469e-10
6.7832346e-08
1.2620241e-11
2.8940045e-10
6.2102412e-08
2.299317e-10
4.761172e-08
2.3651005e-15
1.7960751e-11
1.044251e-09
1.2188845e-07
-5.9581941e-14
1.7287109e-11
1.5631767e-09
1.6070225e-07
-1.7274121e-11
1.8188682e-09
1.7610525e-07
-1.7940659e-11
1.5630933e-09
1.6070229e-07
1.0442068e-09
1.2188853e-07
-2.07285e-14
1.1885362e-10
2.6667602e-09
1.7342659e-07
-4.2554885e-14
4.8991827e-11
4.3483967e-09
2.3425364e-07
-4.9097035e-11
5.0247174e-09
2.5857185e-07
-1.189067e-10
4.3482009e-09
2.3425338e-07
2.6666023e-09
1.7342651e-07
-4.5760497e-14
3.4834289e-10
4.56364e-09
2.0114852e-07
-1.5575099e-14
1.4188728e-10
7.3436065e-09
2.7925305e-07
-1.4210996e-10
8.0677337e-09
3.0973727e-07
-3.4848093e-10
7.3433539e-09
2.7925233e-07
4.5633836e-09
2.0114814e-07
-6.4118363e-14
6.363605e-10
1.9862715e-07
2.6582636e-14
5.1614489e-09
3.5255804e-10
2.8168981e-07
7.4329448e-09
-3.5293805e-10
3.1134107e-07
7.5023834e-09
-6.3659106e-10
2.8168912e-07
7.4327576e-09
1.9862663e-07
-7.6330654e-14
5.1612096e-09
-8.7849697e-12
1.723346e-10
4.7448153e-08
-5.1906833e-14
1.9558417e-12
2.1864649e-10
6.1872964e-08
-1.849202e-12
2.526361e-10
6.7583515e-08
8.9100268e-12
2.1863047e-10
6.1873023e-08
1.724011e-10
4.7448213e-08
1.6628746e-14
1.7975218e-11
8.0018359e-10
1.2124271e-07
-8.6971898e-14
1.4427464e-11
1.2022706e-09
1.5972218e-07
-1.4272491e-11
1.3947839e-09
1.7499181e-07
-1.7879103e-11
1.2022845e-09
1.5972224e-07
8.0023758e-10
1.2124282e-07
3.1496521e-15
1.0818729e-10
2.095979e-09
1.7202269e-07
-8.3294358e-14
4.6363621e-11
3.4795031e-09
2.3203823e-07
-4.631721e-11
4.0390047e-09
2.5602031e-07
-1.0813269e-10
3.4794336e-09
2.3203805e-07
2.0959651e-09
1.7202267e-07
-2.0012238e-14
3.0071803e-10
3.7228965e-09
1.9922096e-07
-7.3477167e-14
1.2144778e-10
6.1918989e-09
2.7671992e-07
-1.214787e-10
6.875414e-09
3.0714378e-07
-3.0073039e-10
6.1917474e-09
2.7671927e-07
3.7227788e-09
1.9922063e-07
-3.8703401e-14
5.3788797e-10
1.9738516e-07
-4.5349232e-14
4.4270396e-09
3.071556e-10
2.8145905e-07
6.6533902e-09
-3.072791e-10
3.1201165e-07
6.819265e-09
-5.379606e-10
2.8145829e-07
6.6532603e-09
1.973846e-07
-4.6595637e-14
4.4268929e-09
-8.0294879e-12
1.2712906e-10
4.7329112e-08
-5.9297934e-14
4.750848e-13
1.5909253e-10
6.1705367e-08
-3.1675145e-13
1.8201836e-10
6.7402288e-08
8.2072192e-12
1.5908743e-10
6.1705412e-08
1.2724538e-10
4.7329145e-08
2.9969932e-14
1.5560456e-11
6.0583769e-10
1.2074856e-07
-1.1240477e-13
1.076928e-11
9.2479829e-10
1.5896126e-07
-1.0457386e-11
1.0679132e-09
1.7412714e-07
-1.5382949e-11
9.2491753e-10
1.5896134e-07
6.05998e-10
1.2074865e-07
3.333743e-14
9.6551869e-11
1.6439691e-09
1.7088813e-07
-1.2156013e-13
4.2759049e-11
2.7901507e-09
2.3022667e-07
-4.2550136e-11
3.2503298e-09
2.539232e-07
-9.637786e-11
2.7902157e-09
2.3022658e-07
1.6441076e-09
1.7088817e-07
1.3996139e-14
2.604929e-10
3.0334524e-09
1.975711e-07
-1.2032009e-13
1.0620845e-10
5.2113072e-09
2.7445305e-07
-1.0603347e-10
5.8474848e-09
3.0475887e-07
-2.6036447e-10
5.2112649e-09
2.7445255e-07
3.0334908e-09
1.9757089e-07
-7.0043941e-15
4.5657081e-10
1.961779e-07
-1.1632366e-13
3.7842535e-09
2.6263885e-10
2.8094661e-07
5.9176737e-09
-2.6248312e-10
3.1221154e-07
6.172714e-09
-4.5646582e-10
2.8094594e-07
5.9176018e-09
1.9617742e-07
-1.4418229e-14
3.7842236e-09
-7.683515e-12
9.2185874e-11
4.7244673e-08
-6.2452719e-14
-5.0096075e-13
1.1305191e-10
6.1585133e-08
7.0420916e-13
1.2908121e-10
6.7272003e-08
7.906204e-12
1.1305875e-10
6.1585151e-08
9.2358757e-11
4.7244651e-08
4.1202492e-14
1.2604001e-11
4.5872494e-10
1.2036955e-07
-1.3290246e-13
7.5438314e-12
7.0973288e-10
1.5836964e-07
-7.0476715e-12
8.1892908e-10
1.7345188e-07
-1.2344515e-11
7.0999276e-10
1.583697e-07
4.5901887e-10
1.2036958e-07
6.2125045e-14
8.4159613e-11
1.2957216e-09
1.6996713e-07
-1.575992e-13
3.8876662e-11
2.2414648e-09
2.2874022e-07
-3.847945e-11
2.6280304e-09
2.5219145e-07
-8.3847542e-11
2.2417236e-09
2.2874022e-07
1.2960815e-09
1.6996721e-07
5.1473904e-14
2.2823225e-10
2.4816402e-09
1.9615713e-07
-1.7175411e-13
9.2609488e-11
4.4020522e-09
2.7242808e-07
-9.2176003e-11
4.9846934e-09
3.0258699e-07
-2.279219e-10
4.4021986e-09
2.7242782e-07
2.4819363e-09
1.9615708e-07
3.9009922e-14
3.9123195e-10
1.9502884e-07
-2.046124e-13
3.2396763e-09
2.2493556e-10
2.8024914e-07
5.2658236e-09
-2.2438711e-10
3.1205565e-07
5.5899054e-09
-3.9087564e-10
2.8024873e-07
5.2658933e-09
1.9502857e-07
3.5887552e-14
3.2398697e-09
-6.984831e-12
6.367589e-11
4.7188039e-08
-5.6899174e-14
-1.1604557e-12
7.7284237e-11
6.1502025e-08
1.3915658e-12
8.84572e-11
6.7180994e-08
7.2241718e-12
7.7304682e-11
6.1502012e-08
6.3869446e-11
4.7187957e-08
4.8239907e-14
1.0120211e-11
3.4199114e-10
1.2008125e-07
-1.3896923e-13
5.1181504e-12
5.4161758e-10
1.5791032e-07
-4.439749e-12
6.2589286e-10
1.7292401e-07
-9.802774e-12
5.419911e-10
1.5791036e-07
3.4235016e-10
1.2008121e-07
8.7973682e-14
7.2816262e-11
1.0195746e-09
1.6921691e-07
-1.7857469e-13
3.4989398e-11
1.8066875e-09
2.2751298e-07
-3.4428654e-11
2.1327186e-09
2.5075405e-07
-7.2386927e-11
1.8070971e-09
2.2751307e-07
1.0200757e-09
1.6921701e-07
8.8310278e-14
2.0049577e-10
2.0333716e-09
1.9494304e-07
-2.0525543e-13
8.1124269e-11
3.7252868e-09
2.7062886e-07
-8.0477249e-11
4.2544066e-09
3.0062691e-07
-2.0002972e-10
3.7255857e-09
2.7062889e-07
2.0338605e-09
1.9494318e-07
8.1291473e-14
3.3638657e-10
1.9395073e-07
-2.6642609e-13
2.7753613e-09
1.9332075e-10
2.7943741e-07
4.6800784e-09
-1.9245616e-10
3.1164721e-07
5.0486301e-09
-3.3581915e-10
2.7943741e-07
4.680271e-09
1.9395078e-07
8.6065641e-14
2.775744e-09
-6.4907134e-12
4.1904036e-11
4.7152672e-08
-4.8009903e-14
-1.5904587e-12
5.0400352e-11
6.1446724e-08
1.8468205e-12
5.7742012e-11
6.7119819e-08
6.7208828e-12
5.0460758e-11
6.1446681e-08
4.2093872e-11
4.7152535e-08
4.7579513e-14
7.9727556e-12
2.4863584e-10
1.1986669e-07
-1.3531325e-13
2.9172442e-12
4.0783724e-10
1.5755794e-07
-2.1899791e-12
4.706377e-10
1.7251621e-07
-7.6096691e-12
4.0827948e-10
1.5755797e-07
2.4902579e-10
1.1986656e-07
1.0296076e-13
6.2478564e-11
7.9677752e-10
1.6860648e-07
-1.8703815e-13
3.0513918e-11
1.4541288e-09
2.2649866e-07
-2.9827986e-11
1.7232423e-09
2.4956179e-07
-6.1964907e-11
1.4546533e-09
2.2649883e-07
7.9736519e-10
1.6860658e-07
1.1913095e-13
1.7648041e-10
1.6635673e-09
1.9389999e-07
-2.2188281e-13
7.379036e-11
3.149372e-09
2.6903631e-07
-7.2971571e-11
3.634068e-09
2.9886284e-07
-1.758885e-10
3.1498073e-09
2.6903665e-07
1.6641996e-09
1.9390034e-07
1.2253494e-13
2.9067331e-10
1.9294966e-07
-2.9992585e-13
2.3742611e-09
1.6871199e-10
2.7855953e-07
4.1492209e-09
-1.67581e-10
3.1106968e-07
4.5478892e-09
-2.8993188e-10
2.7856002e-07
4.1495457e-09
1.9295011e-07
1.3948287e-13
2.3748057e-09
-6.0368854e-12
2.3209762e-11
4.7135524e-08
-2.5150931e-14
-1.7418668e-12
2.6813664e-11
6.1415617e-08
1.8844447e-12
3.0901804e-11
6.7085293e-08
6.2077513e-12
2.6855748e-11
6.1415504e-08
2.3362582e-11
4.7135338e-08
3.9660098e-14
6.2687049e-12
1.6964916e-10
1.1971408e-07
-1.0559199e-13
1.435408e-12
2.949325e-10
1.5729467e-07
-9.1353571e-13
3.4125716e-10
1.722082e-07
-5.9588844e-12
2.9526805e-10
1.572946e-07
1.699899e-10
1.1971387e-07
1.0014893e-13
5.3363285e-11
6.1044967e-10
1.6811248e-07
-1.6910224e-13
2.6157947e-11
1.1594787e-09
2.2566132e-07
-2.5408525e-11
1.3827048e-09
2.485719e-07
-5.2843833e-11
1.1599884e-09
2.2566154e-07
6.110155e-10
1.6811258e-07
1.2946712e-13
1.5548778e-10
1.35076e-09
1.930044e-07
-2.1056642e-13
6.7108298e-11
2.6525807e-09
2.6763158e-07
-6.6217857e-11
3.0960822e-09
2.9728279e-07
-1.5485287e-10
2.6530524e-09
2.6763222e-07
1.351419e-09
1.9300494e-07
1.4357467e-13
2.518072e-10
1.9202711e-07
-2.9018781e-13
2.0218023e-09
1.4746777e-10
2.7765312e-07
3.6633236e-09
-1.4623466e-10
3.1038256e-07
4.0769024e-09
-2.5100142e-10
2.7765413e-07
3.6637121e-09
1.9202794e-07
1.7290782e-13
2.0224086e-09
-5.5632549e-12
6.3342233e-12
4.7134751e-08
-2.2391739e-15
-1.8703496e-12
5.1586539e-12
6.1406757e-08
1.9600215e-12
6.3864152e-12
6.7075089e-08
5.665909e-12
5.187812e-12
6.1406611e-08
6.4306808e-12
4.7134543e-08
3.1087688e-14
4.8336887e-12
1.0354474e-10
1.1961205e-07
-6.4981811e-14
4.2235971e-13
1.9932665e-10
1.5710495e-07
2.2404575e-14
2.3289071e-10
1.7198212e-07
-4.6075901e-12
1.9959246e-10
1.5710484e-07
1.0378062e-10
1.196118e-07
8.8257219e-14
4.5335971e-11
4.5527504e-10
1.6771552e-07
-1.3330191e-13
2.2079524e-11
9.1203162e-10
2.249719e-07
-2.1368444e-11
1.0973986e-09
2.4775086e-07
-4.4862815e-11
9.1248323e-10
2.2497216e-07
4.5574586e-10
1.6771562e-07
1.2489226e-13
1.366509e-10
1.0875754e-09
1.9223562e-07
-1.7773978e-13
6.0528682e-11
2.2241437e-09
2.6639559e-07
-5.9672617e-11
2.6273866e-09
2.9587301e-07
-1.3604148e-10
2.2245996e-09
2.6639648e-07
1.0881852e-09
1.922363e-07
1.4775644e-13
2.1875044e-10
1.9118165e-07
-2.4647391e-13
1.7145285e-09
1.2896536e-10
2.7674552e-07
3.2215362e-09
-1.2776048e-10
3.0962599e-07
3.6406896e-09
-2.1796847e-10
2.7674698e-07
3.2219557e-09
1.9118284e-07
1.8711661e-13
1.7151302e-09
-5.1442761e-12
-7.4043932e-12
4.7147273e-08
2.6350156e-14
-1.9315349e-12
-1.1729052e-11
6.1415229e-08
1.9197624e-12
-1.1907484e-11
6.708318e-08
5.1640666e-12
-1.1711424e-11
6.1415092e-08
-7.3835665e-12
4.7147058e-08
5.6740851e-14
3.4420754e-12
4.7522965e-11
1.1955369e-07
-1.4760221e-14
-5.7557266e-13
1.1907926e-10
1.5697815e-07
8.5423447e-13
1.4276607e-10
1.7182604e-07
-3.3358046e-12
1.1926691e-10
1.5697803e-07
4.7598205e-11
1.195534e-07
1.0795173e-13
3.8219092e-11
3.2353421e-10
1.6740139e-07
-8.2515916e-14
1.841046e-11
7.0263499e-10
2.2440815e-07
-1.7843439e-11
8.5641739e-10
2.4707349e-07
-3.7845612e-11
7.0297998e-10
2.2440843e-07
3.2379994e-10
1.6740147e-07
1.24921e-13
1.1966735e-10
8.6322958e-10
1.9157638e-07
-1.2713744e-13
5.4396958e-11
1.8526862e-09
2.6531081e-07
-5.3699011e-11
2.2170062e-09
2.9462053e-07
-1.1916349e-10
1.8530587e-09
2.6531186e-07
8.6366521e-10
1.9157715e-07
1.4155012e-13
1.8909665e-10
1.9040908e-07
-1.732587e-13
1.4468682e-09
1.1264004e-10
2.7585556e-07
2.8191012e-09
-1.1164507e-10
3.0883252e-07
3.2347623e-09
-1.8845496e-10
2.7585736e-07
2.8194842e-09
1.9041053e-07
1.7401332e-13
1.447355e-09
-5.0362827e-12
-1.8224245e-11
4.7170459e-08
5.0214405e-14
-1.8951324e-12
-2.6231897e-11
6.1438366e-08
1.8087986e-12
-2.7573687e-11
6.710706e-08
4.9330142e-12
-2.6246638e-11
6.1438236e-08
-1.8310105e-11
4.7170306e-08
-1.3065103e-14
2.8836542e-12
-5.4109069e-13
1.195331e-07
4.2472241e-14
-9.9645102e-13
5.2090181e-11
1.5690371e-07
1.2232111e-12
6.8027362e-11
1.7172822e-07
-2.7234135e-12
5.2146306e-11
1.5690357e-07
-5.2672555e-13
1.1953286e-07
2.1106413e-14
3.1566295e-11
2.1370004e-10
1.6715561e-07
-1.464494e-14
1.4885763e-11
5.2677747e-10
2.2395015e-07
-1.4538748e-11
6.5417019e-10
2.4651676e-07
-3.1366534e-11
5.2697776e-10
2.2395041e-07
2.1379517e-10
1.671557e-07
6.6192751e-14
1.0391746e-10
6.7454614e-10
1.9101168e-07
-5.4895752e-14
4.8403069e-11
1.5331347e-09
2.6435998e-07
-4.7940013e-11
1.8609532e-09
2.9351009e-07
-1.0358398e-10
1.53339e-09
2.6436109e-07
6.7477758e-10
1.9101248e-07
9.5314066e-14
1.630085e-10
1.8970703e-07
-8.1774985e-14
1.2136664e-09
9.824342e-11
2.7499612e-07
2.4573348e-09
-9.7554648e-11
3.0802653e-07
2.8627407e-09
-1.6257695e-10
2.7499813e-07
2.4576464e-09
1.8970862e-07
1.2802964e-13
1.2139802e-09
-4.9435511e-12
-2.7720793e-11
4.7203063e-08
7.0971909e-14
-1.9219659e-12
-3.8987017e-11
6.1474334e-08
1.7379142e-12
-4.1539984e-11
6.7144941e-08
4.7664175e-12
-3.9030861e-11
6.1474235e-08
-2.7861915e-11
4.7202958e-08
-3.6587915e-14
1.2435754e-12
-3.7511984e-11
1.1954154e-07
9.8615014e-14
-1.6315996e-12
-6.4386283e-12
1.5687404e-07
1.5046788e-12
2.5535546e-12
1.7168099e-07
-1.3815458e-12
-6.4821294e-12
1.568739e-07
-3.7726302e-11
1.1954137e-07
-2.4869965e-14
2.6677797e-11
1.2185283e-10
1.6696952e-07
5.4419892e-14
1.2165899e-11
3.7547615e-10
2.2358274e-07
-1.2110687e-11
4.8026979e-10
2.4606332e-07
-2.6659646e-11
3.7549928e-10
2.2358298e-07
1.2168249e-10
1.6696961e-07
1.7089192e-14
9.0461869e-11
5.1319927e-10
1.9052985e-07
2.1701797e-14
4.3168801e-11
1.2542543e-09
2.6352849e-07
-4.3018945e-11
1.5481442e-09
2.925284e-07
-9.0346796e-11
1.254342e-09
2.6352957e-07
5.1314829e-10
1.9053062e-07
4.1839393e-14
1.4050581e-10
1.8907151e-07
3.0848777e-14
1.0081848e-09
8.5919501e-11
2.7417565e-07
2.1293171e-09
-8.5658109e-11
3.0722607e-07
2.520188e-09
-1.4035691e-10
2.7417768e-07
2.1294909e-09
1.8907309e-07
5.8582504e-14
1.0082596e-09
-4.8015138e-12
-3.5942326e-11
4.7243723e-08
8.3357637e-14
-1.8912176e-12
-4.9481496e-11
6.1520905e-08
1.6296217e-12
-5.2753244e-11
6.7194174e-08
4.5557578e-12
-4.9537592e-11
6.1520847e-08
-3.6121321e-11
4.7243691e-08
-5.6558377e-14
-1.4606451e-13
-7.1170381e-11
1.1957677e-07
1.4178179e-13
-2.0589752e-12
-5.5468616e-11
1.5688194e-07
1.7374503e-12
-5.0478848e-11
1.7167492e-07
-1.5769053e-13
-5.5572017e-11
1.5688183e-07
-7.1531049e-11
1.195767e-07
-7.3744075e-14
2.2011664e-11
4.228792e-11
1.6683393e-07
1.179357e-13
9.5108374e-12
2.4695853e-10
2.2329282e-07
-9.7648034e-12
3.3361209e-10
2.4569851e-07
-2.2185329e-11
2.4682148e-10
2.2329301e-07
4.1885552e-11
1.6683405e-07
-3.9324104e-14
7.7704699e-11
3.7474039e-10
1.901196e-07
9.4946091e-14
3.801074e-11
1.0127052e-09
2.6280244e-07
-3.818302e-11
1.2753238e-09
2.9166288e-07
-7.7819003e-11
1.0126275e-09
2.628034e-07
3.7442859e-10
1.9012028e-07
-1.7131802e-14
1.2065358e-10
1.8849774e-07
1.2594363e-13
8.2773585e-10
7.5100551e-11
2.7339883e-07
1.835077e-09
-7.527205e-11
3.0644439e-07
2.2073714e-09
-1.2079267e-10
2.7340073e-07
1.8351002e-09
1.8849919e-07
-2.1282376e-14
8.2756335e-10
-4.6606164e-12
-4.2999712e-11
4.7291295e-08
8.8434324e-14
-1.8203154e-12
-5.8761323e-11
6.1576826e-08
1.5103871e-12
-6.2813588e-11
6.7253657e-08
4.3747241e-12
-5.8829504e-11
6.1576812e-08
-4.3200903e-11
4.7291338e-08
-7.0693762e-14
-1.2279462e-12
-9.9679557e-11
1.1963451e-07
1.7640121e-13
-2.3417618e-12
-9.8149014e-11
1.5692244e-07
1.8511493e-12
-9.80226e-11
1.7170593e-07
7.8613705e-13
-9.8292527e-11
1.5692236e-07
-1.0014662e-10
1.1963455e-07
-1.1753303e-13
1.7979505e-11
-2.6142588e-11
1.6674224e-07
1.7533169e-13
7.5302304e-12
1.3515403e-10
2.2306996e-07
-8.082576e-12
2.0517541e-10
2.4541092e-07
-1.8326337e-11
1.3486184e-10
2.230701e-07
-2.6716793e-11
1.6674239e-07
-9.8740084e-14
6.625381e-11
2.5445649e-10
1.8977258e-07
1.6008037e-13
3.3267484e-11
8.0043841e-10
2.6217014e-07
-3.3759026e-11
1.033874e-09
2.9090121e-07
-6.6601001e-11
8.0018241e-10
2.6217092e-07
2.5388578e-10
1.8977316e-07
-8.3452807e-14
1.0323114e-10
1.879815e-07
2.0870802e-13
6.6725062e-10
6.532327e-11
2.7266815e-07
1.5690266e-09
-6.5949911e-11
3.0568967e-07
1.9198724e-09
-1.0366516e-10
2.7266977e-07
1.5688562e-09
1.8798271e-07
-1.0800914e-13
6.6680977e-10
-4.5872514e-12
-4.8733547e-11
4.7344529e-08
8.7132174e-14
-1.7616614e-12
-6.6382636e-11
6.1640383e-08
1.4350115e-12
-7.0996954e-11
6.7321457e-08
4.2997265e-12
-6.6474182e-11
6.1640422e-08
-4.8909956e-11
4.7344626e-08
-7.8348367e-14
-2.4568583e-12
-1.231076e-10
1.1971113e-07
2.0770249e-13
-2.6351944e-12
-1.3397491e-10
1.5699021e-07
2.0161346e-12
-1.3712778e-10
1.7176741e-07
1.7741488e-12
-1.3405088e-10
1.5699018e-07
-1.2369465e-10
1.1971126e-07
-1.5551709e-13
1.4144619e-11
-8.3144092e-11
1.6668791e-07
2.1748646e-13
5.4414797e-12
3.9915304e-11
2.2290478e-07
-6.2553084e-12
9.5910848e-11
2.4518958e-07
-1.4616709e-11
3.9557309e-11
2.2290485e-07
-8.3869904e-11
1.666881e-07
-1.4866949e-13
5.621081e-11
1.5116455e-10
1.8948185e-07
2.1187677e-13
2.865339e-11
6.1601489e-10
2.616216e-07
-2.942167e-11
8.2212865e-10
2.9023307e-07
-5.6734615e-11
6.1562812e-10
2.6162217e-07
1.5042028e-10
1.8948227e-07
-1.3893756e-13
8.8226296e-11
1.875181e-07
2.6612487e-13
5.2608002e-10
5.6903791e-11
2.719848e-07
1.3306897e-09
-5.7882633e-11
3.0496881e-07
1.657769e-09
-8.8880471e-11
2.7198604e-07
1.3303571e-09
1.8751898e-07
-1.7839928e-13
5.2544966e-10
-4.4263517e-12
-5.3959553e-11
4.740284e-08
7.4852885e-14
-1.6158063e-12
-7.3313369e-11
6.1710886e-08
1.3118523e-12
-7.792411e-11
6.7396454e-08
4.157009e-12
-7.3389774e-11
6.1710967e-08
-5.412003e-11
4.7402982e-08
-7.8844762e-14
-3.5974104e-12
-1.4379147e-10
1.1980435e-07
2.0391657e-13
-2.6991207e-12
-1.6639374e-10
1.5708239e-07
2.0253566e-12
-1.7021444e-10
1.7185498e-07
2.7750909e-12
-1.663845e-10
1.5708243e-07
-1.4446757e-10
1.1980457e-07
-1.8514906e-13
1.1035829e-11
-1.3335483e-10
1.6666621e-07
2.3226178e-13
4.2310849e-12
-4.609098e-11
2.2279128e-07
-5.2574607e-12
4.0714857e-12
2.4502479e-07
-1.15845e-11
-4.6530486e-11
2.2279132e-07
-1.3419368e-10
1.6666643e-07
-1.8875669e-13
4.7088285e-11
6.1345221e-11
1.8923981e-07
2.4978019e-13
2.3513872e-11
4.5237176e-10
2.6114671e-07
-2.4456965e-11
6.3480386e-10
2.8965031e-07
-4.7742203e-11
4.5187754e-10
2.6114704e-07
6.0466772e-11
1.8924006e-07
-1.9546698e-13