/*--------------------------------*- C++ -*----------------------------------*\
| =========                 |                                                 |
| \\      /  F ield         | OpenFOAM: The Open Source CFD Toolbox           |
|  \\    /   O peration     | Version:  2.3.x                                 |
|   \\  /    A nd           | Web:      www.OpenFOAM.org                      |
|    \\/     M anipulation  |                                                 |
\*---------------------------------------------------------------------------*/
FoamFile
{
    version     2.0;
    format      ascii;
    class       volVectorField;
    location    "0.03";
    object      U;
}
// * * * * * * * * * * * * * * * * * * * * * * * * * * * * * * * * * * * * * //

dimensions      [0 1 -1 0 0 0 0];

internalField   nonuniform List<vector> 
10000
(
(0.22701856 0.031490594 1.6919179)
(0.20708407 0.088401216 1.8115619)
(0.15659299 0.15659282 1.8479199)
(0.088401409 0.20708391 1.8115622)
(0.031490773 0.22701838 1.6919185)
(0.48874702 0.088744197 2.1650806)
(0.42376234 0.19396199 2.1451241)
(0.31854388 0.31854394 2.1357778)
(0.19396189 0.42376217 2.1451237)
(0.088744231 0.48874686 2.1650796)
(0.43716014 0.090064253 2.1313955)
(0.35732694 0.1610501 2.1025727)
(0.25935518 0.25935548 2.0894378)
(0.1610499 0.35732706 2.1025727)
(0.090064098 0.43716007 2.131395)
(0.29873924 0.078054538 2.0675556)
(0.227408 0.094637337 2.0541254)
(0.16083336 0.16083346 2.0504437)
(0.094637601 0.22740851 2.0541257)
(0.078054709 0.29873988 2.0675557)
(0.20136229 0.065107001 2.050154)
(0.153333 0.052581743 2.0462948)
(0.10773575 0.10773567 2.0433273)
(0.052582011 0.15333322 2.0462951)
(0.065107245 0.2013627 2.0501543)
(0.097754909 0.023649035 1.7663271)
(0.10624479 0.064736467 1.9533026)
(0.093659746 0.093658841 2.0160156)
(0.064737635 0.10624452 1.9533028)
(0.023650057 0.097755209 1.7663276)
(0.37651291 0.068658061 2.6361892)
(0.35459606 0.16985494 2.6340567)
(0.27753815 0.27753747 2.6270489)
(0.16985597 0.35459621 2.6340583)
(0.068659328 0.37651375 2.6361927)
(0.41416901 0.074425469 2.6597171)
(0.3600615 0.164737 2.5989187)
(0.27467826 0.27467752 2.5794465)
(0.16473798 0.36006162 2.5989204)
(0.074426729 0.41417008 2.6597206)
(0.36648556 0.069304433 2.5621776)
(0.28997537 0.12402118 2.4837746)
(0.21057531 0.21057413 2.45835)
(0.12402239 0.289975 2.4837755)
(0.069305778 0.36648634 2.5621797)
(0.27258482 0.062662311 2.4458082)
(0.20506571 0.074106018 2.3832294)
(0.14947882 0.14947749 2.3668291)
(0.074107182 0.20506441 2.3832297)
(0.062663588 0.27258454 2.4458092)
(0.022308671 0.010589439 1.4689663)
(0.025206787 0.02486292 1.7091759)
(0.028769068 0.028767665 1.8009244)
(0.024864478 0.025205992 1.7091743)
(0.01059064 0.02230879 1.4689634)
(0.14545745 0.034588928 2.8399695)
(0.17415632 0.10018679 2.9857564)
(0.15053604 0.15053362 3.0095761)
(0.10019012 0.17415555 2.9857558)
(0.034591288 0.14545813 2.8399664)
(0.23488652 0.041696556 3.0750785)
(0.22454438 0.11545011 3.024445)
(0.17841466 0.17841206 3.0043797)
(0.11545313 0.22454264 3.0244454)
(0.041699345 0.2348866 3.075079)
(0.24058084 0.034483063 3.0011095)
(0.20233352 0.097231843 2.9079084)
(0.1534411 0.15343871 2.8818682)
(0.097234071 0.20233085 2.9079078)
(0.034485147 0.24057915 3.0011097)
(0.19427312 0.027098467 2.8545394)
(0.14747905 0.062449542 2.775704)
(0.11166247 0.11166062 2.7555482)
(0.062451341 0.14747607 2.7757031)
(0.027099748 0.19426993 2.8545378)
(-0.0010799674 0.0041208035 1.1640002)
(-0.002116801 0.0066473371 1.341613)
(0.0016626909 0.0016631826 1.4140944)
(0.0066466214 -0.0021170071 1.3416105)
(0.004120085 -0.0010805333 1.1639959)
(0.09873663 0.024119497 2.7745884)
(0.10391099 0.065441266 2.9689319)
(0.095333985 0.095332963 3.0287332)
(0.065442369 0.10390961 2.9689286)
(0.024120433 0.098735555 2.7745826)
(0.1611611 0.024906623 3.2551346)
(0.15890885 0.084606433 3.2491213)
(0.13046121 0.13045979 3.2391586)
(0.084607989 0.15890702 3.2491189)
(0.024907682 0.16115934 3.2551298)
(0.17891542 0.020108 3.2403222)
(0.15421052 0.076695829 3.1734133)
(0.1179028 0.11790181 3.1499583)
(0.076696915 0.15420874 3.1734111)
(0.020108495 0.17891319 3.2403182)
(0.15420307 0.014864176 3.1251081)
(0.10925189 0.05095052 3.0429268)
(0.082004302 0.08200393 3.0253205)
(0.050950947 0.10925057 3.0429253)
(0.014864019 0.15420065 3.1251043)
(-0.0035012433 -0.0013957342 1.0632476)
(-0.0041760692 -0.0023096038 1.2079216)
(-0.0039128684 -0.0039110356 1.263069)
(-0.0023120727 -0.0041752807 1.2079219)
(-0.0013979959 -0.0035012927 1.0632473)
(0.047164964 0.0077934539 2.6606676)
(0.057328219 0.03432597 2.8937665)
(0.054890389 0.054891831 2.9713761)
(0.034323608 0.057327901 2.8937657)
(0.0077908792 0.047163457 2.6606654)
(0.11268568 0.01330252 3.3391192)
(0.11942384 0.062092267 3.3787195)
(0.099827187 0.099827838 3.3795718)
(0.062091308 0.11942342 3.3787177)
(0.013300943 0.1126841 3.3391158)
(0.14712723 0.012355043 3.3994515)
(0.13051251 0.063708955 3.346748)
(0.10158953 0.10159016 3.3281626)
(0.063708216 0.13051251 3.3467463)
(0.012353853 0.14712633 3.3994479)
(0.13962634 0.010574383 3.3082343)
(0.1016496 0.047098399 3.2293102)
(0.074067683 0.074068641 3.2083117)
(0.047097271 0.10165 3.2293093)
(0.010573202 0.13962574 3.3082312)
(-0.0021339859 -0.001908164 1.0220348)
(-0.0035384659 -0.0040266825 1.1560767)
(-0.0044842257 -0.0044826948 1.2045092)
(-0.0040287576 -0.0035373593 1.1560778)
(-0.0019100972 -0.002133519 1.0220362)
(0.021458432 0.00087161424 2.5920616)
(0.026941971 0.014718667 2.8367758)
(0.026209632 0.02621179 2.9202636)
(0.014715656 0.026943146 2.8367765)
(0.00086841298 0.021458782 2.5920624)
(0.0735416 0.0055155468 3.39156)
(0.083360176 0.043388434 3.4756138)
(0.072559185 0.072560389 3.4867546)
(0.043387 0.08336116 3.4756132)
(0.0055133892 0.073542181 3.3915589)
(0.11555314 0.0062314477 3.5310653)
(0.10801558 0.052914468 3.4870116)
(0.084709284 0.084709968 3.4693589)
(0.05291391 0.10801667 3.4870105)
(0.0062303925 0.11555436 3.531063)
(0.12219582 0.0065314844 3.4585496)
(0.094283479 0.04405358 3.3815696)
(0.068743983 0.068744386 3.3588356)
(0.044053147 0.09428441 3.3815692)
(0.0065309317 0.12219699 3.4585476)
(-0.00086579393 -0.00076249404 1.0003835)
(-0.0018738396 -0.0021404201 1.1322672)
(-0.002549972 -0.0025491145 1.1792293)
(-0.0021419991 -0.001872997 1.1322681)
(-0.00076401808 -0.00086544699 1.0003849)
(0.011220352 -0.00064125191 2.5522251)
(0.012720696 0.0064168253 2.8014764)
(0.012069625 0.012071523 2.8869289)
(0.006413567 0.012722111 2.8014774)
(-0.0006445849 0.011221032 2.5522267)
(0.047018108 0.0012871017 3.4288471)
(0.05570488 0.029420768 3.5524423)
(0.049966566 0.049967961 3.5756803)
(0.029418445 0.055705972 3.552442)
(0.001284243 0.047019019 3.4288468)
(0.086867727 0.0016219209 3.6461367)
(0.085284108 0.042657183 3.6154493)
(0.068193054 0.068193914 3.5981345)
(0.042656026 0.085285338 3.6154481)
(0.0016202559 0.086869289 3.6461345)
(0.10101478 0.0026394966 3.5936388)
(0.081885065 0.039300592 3.518755)
(0.060028915 0.060029421 3.4948333)
(0.039299821 0.081886189 3.5187542)
(0.0026384408 0.10101645 3.5936367)
(-0.0003246293 -3.1360562e-05 0.98811142)
(-0.00072306406 -0.00061379652 1.1200689)
(-0.00094212263 -0.00094161411 1.1670071)
(-0.00061485529 -0.00072251648 1.1200694)
(-3.2365517e-05 -0.00032445779 0.98811263)
(0.0072237784 -0.00060369253 2.5311285)
(0.0073614978 0.0035953811 2.783574)
(0.006667449 0.0066689528 2.8698529)
(0.0035925027 0.007362757 2.7835748)
(-0.00060654114 0.0072244438 2.5311303)
(0.031550009 -0.00060602057 3.4592491)
(0.037966391 0.020095889 3.6159064)
(0.034728325 0.034729804 3.650563)
(0.02009317 0.037967505 3.6159063)
(-0.0006089304 0.031551164 3.4592494)
(0.065401171 -0.0010745024 3.7474631)
(0.067051023 0.033893715 3.7345784)
(0.054459317 0.054460424 3.7189786)
(0.033892099 0.067052383 3.7345775)
(-0.0010762881 0.065403025 3.7474616)
(0.082541741 0.00021548208 3.7173466)
(0.069733153 0.034056413 3.6472446)
(0.051090597 0.051091353 3.6224291)
(0.034055381 0.069734505 3.6472438)
(0.00021431919 0.082543772 3.717345)
(-9.3643353e-05 0.00014938921 0.98055472)
(-0.00019786834 -7.1342937e-05 1.1120428)
(-0.00024486018 -0.00024446209 1.1589096)
(-7.1979093e-05 -0.00019746957 1.1120432)
(0.00014893064 -9.3630694e-05 0.98055572)
(0.0053965769 -0.0004139721 2.5215673)
(0.0054995249 0.0026349493 2.7755456)
(0.0047988033 0.0048001166 2.8621096)
(0.0026324207 0.0055005564 2.7755462)
(-0.00041601744 0.005396857 2.5215688)
(0.022867178 -0.0012526612 3.4871436)
(0.027567249 0.014408564 3.6692199)
(0.025367447 0.025368906 3.7136858)
(0.014405685 0.027568059 3.6692199)
(-0.0012552629 0.022867852 3.4871439)
(0.051187876 -0.0022520434 3.8373822)
(0.054445684 0.027492182 3.8439851)
(0.044724438 0.04472572 3.8310979)
(0.027490233 0.054446744 3.8439842)
(-0.0022539521 0.051189181 3.8373809)
(0.068785509 -0.00067968027 3.8310976)
(0.060872927 0.029770145 3.7667796)
(0.044580107 0.044581174 3.7412166)
(0.02976881 0.060874201 3.7667786)
(-0.000681136 0.068787149 3.8310959)
(1.3226214e-05 0.00019203129 0.97507423)
(2.9004114e-05 0.00016539358 1.1063442)
(2.3368795e-05 2.3511604e-05 1.1530804)
(0.00016514933 2.9109925e-05 1.1063449)
(0.00019200772 1.3182608e-05 0.97507544)
(0.0043895779 -0.00035916162 2.5177616)
(0.0043266661 0.0020859234 2.7750562)
(0.0037565646 0.0037574972 2.8622328)
(0.0020843214 0.0043271848 2.7750571)
(-0.0003604388 0.0043895411 2.5177636)
(0.017696996 -0.0014896092 3.5135182)
(0.021102977 0.010705814 3.7160063)
(0.019313146 0.019314665 3.7688382)
(0.010702955 0.021103499 3.7160067)
(-0.0014918432 0.017697033 3.5135193)
(0.041104164 -0.0026115202 3.9176337)
(0.045516523 0.022733431 3.9448979)
(0.037753591 0.037755268 3.9355407)
(0.022730891 0.045517317 3.9448975)
(-0.0026136842 0.041104558 3.9176332)
(0.059247266 -0.00075603766 3.9378551)
(0.054553801 0.026475094 3.8793479)
(0.040133897 0.040135663 3.8530772)
(0.026472905 0.054555104 3.8793471)
(-0.00075805483 0.059248225 3.9378538)
(5.2773563e-05 0.00017430111 0.97101638)
(2.9747728e-05 0.0001574725 1.1016445)
(2.7276561e-05 2.7030114e-05 1.1482417)
(0.00015771005 2.9612628e-05 1.1016454)
(0.00017480511 5.2707044e-05 0.97101767)
(0.0034233352 -0.0002213426 2.5176307)
(0.0037759656 0.0018858559 2.7763745)
(0.0032086659 0.0032091366 2.8643588)
(0.0018848678 0.0037761278 2.7763758)
(-0.00022137488 0.0034232284 2.517633)
(0.013985437 -0.0014190704 3.5388093)
(0.016703457 0.00831472 3.7573487)
(0.015125439 0.015126557 3.8172722)
(0.0083125028 0.016703608 3.7573495)
(-0.0014203412 0.013985167 3.5388108)
(0.033486499 -0.0026081008 3.9896589)
(0.038494193 0.019016602 4.0377447)
(0.032251559 0.032253043 4.0327097)
(0.019014249 0.038494531 4.0377447)
(-0.0026098298 0.033486269 3.9896591)
(0.051453167 -0.00066234221 4.0378576)
(0.049350426 0.023711149 3.9848809)
(0.036615153 0.036616901 3.9583439)
(0.023708939 0.049351353 3.9848805)
(-0.00066422338 0.051453445 4.0378569)
(2.3487208e-05 9.0257066e-05 0.96789119)
(-1.4359061e-05 9.3719078e-05 1.0980443)
(-6.9573457e-06 -7.6081658e-06 1.1446383)
(9.4459775e-05 -1.476929e-05 1.0980454)
(9.1212445e-05 2.3387668e-05 0.96789265)
(0.0027777057 -0.00025898696 2.51885)
(0.0030181271 0.0015063569 2.7797607)
(0.002512937 0.0025127946 2.8690713)
(0.0015062365 0.0030178855 2.7797627)
(-0.00025824441 0.0027775112 2.5188527)
(0.011101825 -0.0013922084 3.5630783)
(0.013295213 0.0064383366 3.7950121)
(0.01185741 0.011858046 3.8610644)
(0.0064368475 0.013295014 3.7950136)
(-0.0013926167 0.011101236 3.5630808)
(0.027330106 -0.0025408778 4.0554214)
(0.0324741 0.015813745 4.1240548)
(0.027439439 0.027440667 4.1240063)
(0.01581158 0.032474005 4.1240555)
(-0.002542178 0.027329239 4.0554227)
(0.044539609 -0.0006244941 4.1325361)
(0.044344118 0.02110789 4.0857347)
(0.033256551 0.033258299 4.0596156)
(0.02110553 0.044344688 4.0857349)
(-0.00062625041 0.044539173 4.1325363)
(6.5560797e-06 3.3003631e-05 0.96571041)
(-2.9265171e-05 7.2885347e-05 1.0956016)
(-1.4383215e-05 -1.5612719e-05 1.142219)
(7.4359672e-05 -3.0055569e-05 1.0956027)
(3.4592968e-05 6.4861476e-06 0.96571183)
(0.0020929963 -0.00035200058 2.5217589)
(0.0022578861 0.0010870601 2.7852046)
(0.0018667504 0.0018656436 2.8756775)
(0.0010885046 0.0022572114 2.7852068)
(-0.00034989132 0.0020929989 2.5217619)
(0.0087450716 -0.0014118196 3.5866666)
(0.010503221 0.0048931768 3.8301186)
(0.0092279723 0.0092276406 3.901402)
(0.0048933339 0.010502824 3.8301204)
(-0.0014106551 0.0087448084 3.5866696)
(0.022230488 -0.002509673 4.1159932)
(0.027114321 0.012948592 4.2042597)
(0.023104941 0.023105177 4.2097016)
(0.012947805 0.027113881 4.2042611)
(-0.0025095321 0.022229789 4.1159953)
(0.038329932 -0.00068134621 4.2219326)
(0.03957474 0.018659784 4.1819471)
(0.029986338 0.029987004 4.1565598)
(0.018658682 0.039574685 4.181948)
(-0.00068172436 0.038329348 4.221934)
(3.7963314e-06 1.7488943e-05 0.96437689)
(-4.6034019e-05 8.0391075e-05 1.0941054)
(-1.8788589e-05 -2.0601188e-05 1.1407958)
(8.2602932e-05 -4.7234634e-05 1.0941064)
(1.9684162e-05 3.6951775e-06 0.96437792)
(0.0015334308 -0.00038620025 2.5261901)
(0.0016535924 0.00079794054 2.7918312)
(0.0013565319 0.0013543396 2.8835087)
(0.0008010818 0.0016524129 2.7918333)
(-0.0003826012 0.0015336393 2.5261927)
(0.006844073 -0.0013947806 3.6099634)
(0.008296698 0.0037115857 3.8634594)
(0.0071825993 0.0071811117 3.9393113)
(0.0037136575 0.0082960634 3.8634616)
(-0.0013919023 0.0068441743 3.6099666)
(0.018058979 -0.0024346987 4.1726728)
(0.022635338 0.010578855 4.2795507)
(0.019378087 0.01937713 4.290709)
(0.010579744 0.022634546 4.2795526)
(-0.0024329006 0.018058573 4.1726757)
(0.03284127 -0.00074998982 4.3071351)
(0.035020405 0.016384801 4.2750602)
(0.02686899 0.026868379 4.2505417)
(0.016385219 0.035019682 4.2750617)
(-0.00074873234 0.032840659 4.3071373)
(1.0709549e-07 1.3259574e-05 0.96365961)
(-5.768683e-05 8.5173687e-05 1.0933413)
(-1.942972e-05 -2.1727475e-05 1.1401151)
(8.8066611e-05 -5.9268675e-05 1.0933418)
(1.5983243e-05 -2.2428555e-08 0.9636597)
(0.0011104963 -0.00037946145 2.531474)
(0.0011825047 0.00058844488 2.7992983)
(0.0009675491 0.00096421634 2.8921349)
(0.00059345697 0.0011808258 2.7992997)
(-0.00037433943 0.0011109577 2.531475)
(0.0053660004 -0.0013212109 3.6327335)
(0.0065989313 0.0028422398 3.8952138)
(0.0056347955 0.0056318895 3.9751137)
(0.0028467221 0.0065981286 3.8952154)
(-0.0013163459 0.0053667435 3.6327357)
(0.014732656 -0.002318514 4.2257149)
(0.018808988 0.0085751097 4.3498625)
(0.01622042 0.016217821 4.3668979)
(0.0085784346 0.018807902 4.3498644)
(-0.0023145388 0.014733012 4.2257175)
(0.028160375 -0.00080625316 4.3877659)
(0.031117788 0.014441404 4.3647012)
(0.024099532 0.024096956 4.3409823)
(0.014444276 0.031116258 4.364703)
(-0.00080265001 0.028160133 4.3877685)
(-7.5631697e-06 9.4009005e-06 0.96348166)
(-7.0663075e-05 7.996912e-05 1.0932014)
(-2.3205918e-05 -2.5800514e-05 1.1400746)
(8.3227904e-05 -7.2553986e-05 1.0932013)
(1.2287192e-05 -7.7455173e-06 0.96348036)
(0.00076116936 -0.00036493793 2.5375512)
(0.00079841712 0.00041206953 2.807517)
(0.00065541942 0.00065119941 2.9014409)
(0.00041861949 0.00079624881 2.8075172)
(-0.00035876311 0.00076157781 2.5375499)
(0.004169201 -0.0012360689 3.655211)
(0.0052472044 0.0021661609 3.9258675)
(0.0044246928 0.0044205138 4.0094054)
(0.0021728136 0.0052461688 3.9258682)
(-0.0012296425 0.0041701901 3.6552113)
(0.012033053 -0.0021899425 4.2760004)
(0.015671377 0.0069514419 4.4161732)
(0.013609565 0.013605471 4.4391179)
(0.0069569952 0.015669996 4.4161748)
(-0.002184193 0.012033933 4.2760021)
(0.024147683 -0.00085630917 4.4648714)
(0.027589633 0.012707334 4.4519262)
(0.021543756 0.021539449 4.4290163)
(0.012712407 0.027587392 4.4519279)
(-0.00085076927 0.024147752 4.4648736)
(-7.5714292e-06 8.8060729e-06 0.96364519)
(-7.3932458e-05 7.9127942e-05 1.0934086)
(-2.1254187e-05 -2.38124e-05 1.1403407)
(8.2326213e-05 -7.5810262e-05 1.0934081)
(1.1486893e-05 -7.7708042e-06 0.96364284)
(0.00048488121 -0.00034466562 2.5441268)
(0.00049245174 0.00027362362 2.8161461)
(0.00040706494 0.00040230401 2.9110802)
(0.00028107404 0.00048992983 2.8161451)
(-0.00033814519 0.00048519642 2.5441228)
(0.0031836877 -0.0011516792 3.6772021)
(0.0041358543 0.0016304922 3.9553289)
(0.0034548751 0.003449686 4.042189)
(0.0016389145 0.0041346175 3.9553281)
(-0.0011442206 0.0031847691 3.6771997)
(0.0097977734 -0.0020675215 4.3235616)
(0.013057283 0.0056065023 4.4785057)
(0.011328844 0.011323451 4.5072012)
(0.0056140418 0.01305565 4.4785064)
(-0.0020604006 0.0097990249 4.3235613)
(0.020684091 -0.00090607011 4.5380539)
(0.024404838 0.011131879 4.5357814)
(0.01929219 0.019286281 4.5140836)
(0.011138984 0.024401989 4.5357826)
(-0.00089899894 0.02068443 4.5380551)
(-1.7007408e-06 7.998475e-06 0.96413969)
(-7.0781037e-05 7.82337e-05 1.0939934)
(-1.4842171e-05 -1.7245852e-05 1.1410217)
(8.0858626e-05 -7.2495916e-05 1.0939918)
(9.8361554e-06 -1.8715593e-06 0.96413595)
(0.00025159935 -0.00032833478 2.5511792)
(0.00022842042 0.0001510829 2.8251872)
(0.00019037069 0.00018518354 2.9210821)
(0.00015827316 0.00022551333 2.8251846)
(-0.00032276471 0.00025177717 2.5511726)
(0.0023376532 -0.0010804982 3.6989301)
(0.0031784505 0.0011795664 3.9839889)
(0.0026369326 0.0026310732 4.0739282)
(0.0011884377 0.0031765568 3.9839867)
(-0.0010732531 0.0023385546 3.6989248)
(0.0078943637 -0.0019604986 4.3691387)
(0.010823524 0.0044700156 4.537859)
(0.0093805031 0.0093743941 4.572034)
(0.0044784526 0.010821514 4.5378586)
(-0.0019530685 0.00789563 4.3691362)
(0.017624757 -0.00097227081 4.6083686)
(0.021490278 0.0097005075 4.6174792)
(0.017187777 0.017181067 4.5975865)
(0.0097085812 0.021487065 4.6174795)
(-0.00096470868 0.017625143 4.6083681)
(8.3752983e-06 8.7992064e-06 0.96494032)
(-6.4420167e-05 7.8707565e-05 1.0949255)
(-5.7947689e-06 -7.2147647e-06 1.1420499)
(8.0313272e-05 -6.5579155e-05 1.0949228)
(9.7402653e-06 8.1665622e-06 0.96493581)
(6.3146787e-05 -0.00031178575 2.5585566)
(7.3569093e-06 4.747849e-05 2.8344828)
(1.060719e-05 6.0970817e-06 2.9312869)
(5.3503856e-05 4.6904022e-06 2.8344783)
(-0.00030764222 6.2904857e-05 2.5585479)
(0.0016177562 -0.0010176096 3.7202127)
(0.0023464487 0.00079728069 4.0116954)
(0.0019356041 0.0019298625 4.1044824)
(0.00080565867 0.0023443457 4.0116916)
(-0.0010113698 0.0016182434 3.7202047)
(0.0062688514 -0.001862644 4.4125928)
(0.008900894 0.0035139103 4.5940733)
(0.0077106965 0.0077045318 4.6333885)
(0.0035223574 0.0088987729 4.5940715)
(-0.0018557729 0.0062699555 4.4125878)
(0.01495101 -0.0010285641 4.6753366)
(0.018836212 0.0084037479 4.6960123)
(0.015235893 0.015229061 4.6782751)
(0.0084119782 0.018832955 4.6960115)
(-0.001021424 0.014951403 4.6753342)
(-3.6619424e-06 6.3536756e-06 0.96596271)
(-7.5255577e-05 6.7930664e-05 1.0960995)
(-1.7839618e-05 -1.7797311e-05 1.1433197)
(6.824076e-05 -7.5510101e-05 1.0960967)
(6.5665253e-06 -3.6984478e-06 0.96595798)
(-0.00011439298 -0.0002982568 2.5662414)
(-0.00019879486 -4.7811552e-05 2.8440495)
(-0.00015897117 -0.00016176745 2.9417183)
(-4.3683742e-05 -0.00020059966 2.8440442)
(-0.00029580729 -0.0001149249 2.5662317)
(0.00099661081 -0.00096070455 3.7412625)
(0.0016227442 0.0004701776 4.0388021)
(0.001331083 0.0013264394 4.1342567)
(0.00047706885 0.001620875 4.0387971)
(-0.00095620615 0.00099622327 3.7412527)
(0.0048732976 -0.0017674869 4.4545646)
(0.0072347022 0.0027028007 4.648061)
(0.0062678914 0.0062625987 4.6922571)
(0.0027101073 0.0072327736 4.6480581)
(-0.0017621467 0.0048736815 4.4545575)
(0.012565501 -0.0010696405 4.7399735)
(0.016408103 0.0072314841 4.7726497)
(0.0134215 0.013415606 4.7575312)
(0.0072385929 0.016405274 4.7726478)
(-0.0010640497 0.012565587 4.7399692)
(-2.8033387e-05 4.2134683e-06 0.967162)
(-8.705554e-05 5.7833949e-05 1.0974649)
(-3.3259059e-05 -3.1850234e-05 1.1447776)
(5.6446032e-05 -8.638673e-05 1.0974622)
(2.7581945e-06 -2.8026919e-05 0.96715778)
(-0.00026203964 -0.00028757583 2.5741166)
(-0.00037628012 -0.00013785672 2.8537171)
(-0.00031099094 -0.00031165523 2.9522005)
(-0.00013680369 -0.00037697216 2.8537114)
(-0.00028795542 -0.00026248789 2.5741071)
(0.00049768626 -0.00089427186 3.7618785)
(0.0010013119 0.00020408277 4.0650778)
(0.00081717897 0.00081431329 4.1630193)
(0.00020827795 0.00099994186 4.0650719)
(-0.00089236299 0.00049726003 3.761868)
(0.0036766798 -0.0016706434 4.4947763)
(0.005796443 0.0020281949 4.6994869)
(0.0050337806 0.0050300266 4.7482534)
(0.0020334232 0.0057949919 4.6994829)
(-0.0016675794 0.0036767035 4.4947679)
(0.01047886 -0.0010909059 4.8016844)
(0.014212629 0.0061860267 4.8462595)
(0.011757662 0.011753362 4.8339835)
(0.0061912367 0.014210543 4.8462565)
(-0.0010876476 0.010478724 4.8016784)
(-3.6336879e-05 6.2499995e-06 0.96852985)
(-9.4993373e-05 5.0946352e-05 1.0990277)
(-4.4580187e-05 -4.1772979e-05 1.1464363)
(4.821034e-05 -9.3562012e-05 1.0990254)
(3.8289006e-06 -3.6321199e-05 0.96852688)
(-0.00041941007 -0.00027837055 2.5822037)
(-0.00053587415 -0.00020819278 2.8635833)
(-0.0004402812 -0.00043833264 2.9628536)
(-0.0002102101 -0.00053533682 2.8635779)
(-0.00028122409 -0.00042039203 2.582196)
(3.1173863e-05 -0.00085563761 3.7822743)
(0.00045927935 -4.029031e-05 4.090885)
(0.00037009934 0.00036967 4.1911722)
(-3.9374905e-05 0.0004586942 4.0908791)
(-0.00085671307 2.9796222e-05 3.7822645)
(0.0026431616 -0.001586858 4.5338483)
(0.0045366811 0.0014409827 4.7492185)
(0.0039536589 0.0039521487 4.8023404)
(0.0014432327 0.0045359392 4.749214)
(-0.0015867375 0.002642273 4.5338394)
(0.0086399577 -0.0011060368 4.8615741)
(0.012213298 0.0052385638 4.918217)
(0.010219433 0.010217537 4.9091284)
(0.0052408277 0.012212325 4.918213)
(-0.0011058317 0.0086393726 4.8615669)
(-4.2401518e-05 8.1266869e-06 0.97001658)
(-9.8468151e-05 4.5046286e-05 1.1007213)
(-4.9805365e-05 -4.586092e-05 1.1482265)
(4.1165494e-05 -9.6356377e-05 1.1007197)
(4.9057561e-06 -4.2264102e-05 0.97001496)
(-0.00054695949 -0.00026667003 2.5903519)
(-0.0006693157 -0.00026794197 2.873462)
(-0.00055253367 -0.00054796085 2.9734864)
(-0.00027289295 -0.00066735905 2.8734574)
(-0.00027177408 -0.00054804764 2.5903467)
(-0.00036593675 -0.00081479409 3.8022291)
(-1.4355395e-05 -0.00024595643 4.1159449)
(-1.9208488e-05 -1.6994971e-05 4.2184411)
(-0.00024848595 -1.3778691e-05 4.1159393)
(-0.00081874848 -0.00036775593 3.8022214)
(0.0017468519 -0.0015028981 4.5714168)
(0.0034354878 0.00094612012 4.796796)
(0.0030213445 0.0030222963 4.8540004)
(0.00094511843 0.0034356311 4.7967912)
(-0.0015056942 0.0017453667 4.5714087)
(0.0070126361 -0.0011158732 4.9189194)
(0.01040762 0.0043905171 4.9872971)
(0.0088107663 0.0088114674 4.9814911)
(0.0043896369 0.010407815 4.9872925)
(-0.0011187954 0.0070116838 4.9189118)
(-4.814656e-05 1.0084361e-05 0.97163431)
(-0.0001013853 3.8609578e-05 1.1025589)
(-5.4592343e-05 -4.9925244e-05 1.1501597)
(3.4015344e-05 -9.8834023e-05 1.1025581)
(6.4055739e-06 -4.7915736e-05 0.97163433)
(-0.00065263728 -0.00025467875 2.5986595)
(-0.00078445874 -0.00032346321 2.8834641)
(-0.00065027956 -0.00064350172 2.9842052)
(-0.00033089984 -0.00078126451 2.8834609)
(-0.00026159947 -0.00065365739 2.5986575)
(-0.00071043955 -0.00077689175 3.8220191)
(-0.00043242091 -0.00042984241 4.140625)
(-0.00036918794 -0.00036439501 4.2452005)
(-0.00043566843 -0.00043076983 4.1406206)
(-0.00078362409 -0.00071283226 3.8220144)
(0.0009534918 -0.00142909 4.6081129)
(0.0024534917 0.00051736739 4.8430684)
(0.0021929178 0.0021964382 4.9041941)
(0.00051289111 0.0024545063 4.8430639)
(-0.0014349941 0.0009510443 4.6081063)
(0.005551257 -0.0011277503 4.9748438)
(0.0087554005 0.0036230937 5.0549901)
(0.00751147 0.0075149528 5.052709)
(0.0036186288 0.0087568463 5.0549853)
(-0.0011338442 0.0055497862 4.9748366)
(-5.2133046e-05 1.2814576e-05 0.97332736)
(-0.00010281767 3.4267094e-05 1.1044826)
(-5.7048734e-05 -5.2055976e-05 1.1521851)
(2.9486232e-05 -0.0001002161 1.1044828)
(9.1611992e-06 -5.1751889e-05 0.97332882)
(-0.00073701398 -0.00024032431 2.6069608)
(-0.00088134082 -0.00036736143 2.8934183)
(-0.00073167542 -0.00072314329 2.9948695)
(-0.00037626447 -0.00087715647 2.8934164)
(-0.00024816377 -0.00073796961 2.6069621)
(-0.0010180959 -0.00074206242 3.8413535)
(-0.00080372543 -0.00058450896 4.1646132)
(-0.00066949788 -0.00066254011 4.2711954)
(-0.00059290543 -0.00080085951 4.1646098)
(-0.00075074777 -0.0010207608 3.8413528)
(0.0002445284 -0.0013657918 4.6434761)
(0.0015890232 0.00014438123 4.8874772)
(0.0014708361 0.0014765564 4.9522817)
(0.00013695409 0.0015909589 4.8874733)
(-0.0013739037 0.00024173798 4.6434725)
(0.0042513823 -0.0011369478 5.0284951)
(0.0072670982 0.0029308496 5.1199559)
(0.0063196139 0.0063254085 5.1211897)
(0.0029235666 0.0072695398 5.1199511)
(-0.0011453758 0.0042497773 5.0284889)
(-5.6888033e-05 1.449825e-05 0.97511706)
(-0.00010382615 2.7415816e-05 1.1065119)
(-5.875845e-05 -5.3988283e-05 1.1543091)
(2.2957388e-05 -0.00010138145 1.1065131)
(1.1093899e-05 -5.6454648e-05 0.97511956)
(-0.00080947595 -0.00022829195 2.6153703)
(-0.00096381819 -0.00041160715 2.9034486)
(-0.00079749918 -0.00078795754 3.00556)
(-0.00042091638 -0.00095901596 2.9034484)
(-0.00023650758 -0.00081043952 2.6153743)
(-0.0012869403 -0.0007107104 3.8605411)
(-0.0011312511 -0.00072867861 4.1882962)
(-0.00095274754 -0.00094417705 4.2967341)
(-0.00073858844 -0.0011272552 4.1882944)
(-0.00072069333 -0.0012896575 3.8605441)
(-0.00039160935 -0.0013131065 4.6781734)
(0.00080481868 -0.00018113974 4.9308721)
(0.00081506224 0.00082250365 4.9992542)
(-0.00019061527 0.00080739917 4.9308694)
(-0.0013231321 -0.00039510916 4.6781723)
(0.0030788589 -0.0011471668 5.0810429)
(0.0059035724 0.0023068025 5.1838051)
(0.0052312316 0.0052388704 5.1887205)
(0.0022968652 0.0059068653 5.1838009)
(-0.0011576741 0.0030764521 5.0810386)
(-6.1108001e-05 1.6285968e-05 0.97695387)
(-0.0001051125 2.2309325e-05 1.1086)
(-6.2021388e-05 -5.8175514e-05 1.1564942)
(1.8504915e-05 -0.00010284524 1.1086016)
(1.3272922e-05 -6.0747461e-05 0.97695749)
(-0.00087000635 -0.00021549206 2.6237295)
(-0.0010347922 -0.00044587692 2.913406)
(-0.00085600186 -0.0008468436 3.0161596)
(-0.00045498058 -0.0010296456 2.9134072)
(-0.00022363051 -0.0008709508 2.6237365)
(-0.0015081768 -0.00067537371 3.8792777)
(-0.0014104185 -0.00084183364 4.2113705)
(-0.0011801503 -0.0011710379 4.3215979)
(-0.00085271415 -0.0014057077 4.2113703)
(-0.0006859823 -0.0015108576 3.8792848)
(-0.00095867745 -0.0012646367 4.7116577)
(0.00011961862 -0.00046199623 4.9725939)
(0.00024437161 0.00025256796 5.0443346)
(-0.00047305205 0.00012284257 4.972592)
(-0.0012749123 -0.0009609236 4.7116605)
(0.0020171993 -0.0011665492 5.1315264)
(0.004674615 0.0017352865 5.2450619)
(0.0042277218 0.0042362368 5.2535741)
(0.0017243403 0.0046781276 5.2450584)
(-0.001176983 0.0020157797 5.1315242)
(-6.5443462e-05 1.5366766e-05 0.97886899)
(-0.00010523742 1.6018292e-05 1.1107692)
(-6.3988016e-05 -6.1417256e-05 1.1587647)
(1.3155314e-05 -0.00010343109 1.1107706)
(1.3056882e-05 -6.5105524e-05 0.97887335)
(-0.00093294533 -0.00021122566 2.6321755)
(-0.001097278 -0.00047955862 2.9234145)
(-0.00090691156 -0.00089915836 3.026809)
(-0.00048758935 -0.0010920851 2.9234158)
(-0.00021851658 -0.00093332525 2.6321848)
(-0.0017170518 -0.00065520471 3.8979056)
(-0.0016562074 -0.00094640046 4.2341845)
(-0.0013793559 -0.0013708196 4.3461758)
(-0.00095727031 -0.0016513186 4.2341854)
(-0.00066549383 -0.0017187273 3.8979161)
(-0.0014261771 -0.0012103236 4.7446464)
(-0.0004947183 -0.00072277925 5.013514)
(-0.00026567763 -0.00025741765 5.0885333)
(-0.00073442329 -0.00049143723 5.0135138)
(-0.0012206653 -0.0014279368 4.7446527)
(0.0010888557 -0.0011402664 5.1811502)
(0.003542465 0.0012346541 5.3054556)
(0.0033055385 0.0033141163 5.3176828)
(0.0012230619 0.0035460225 5.3054529)
(-0.0011506186 0.0010876742 5.1811498)
(-6.7414458e-05 1.5668239e-05 0.98081782)
(-0.00010423284 1.1159421e-05 1.1129747)
(-6.5096771e-05 -6.3678567e-05 1.1610694)
(9.3102956e-06 -0.00010322598 1.112976)
(1.4446864e-05 -6.7185066e-05 0.98082236)
(-0.00098170264 -0.00020466763 2.6405606)
(-0.0011473975 -0.00050743926 2.9333209)
(-0.00094972698 -0.00094365439 3.0373275)
(-0.00051413611 -0.0011432415 2.9333223)
(-0.00021011607 -0.0009817446 2.6405709)
(-0.0018980552 -0.00063419196 3.9161264)
(-0.0018731667 -0.0010379857 4.2564029)
(-0.0015561635 -0.0015485763 4.3700558)
(-0.0010478565 -0.001868298 4.2564039)
(-0.00064277063 -0.0018987452 3.9161386)
(-0.0018425037 -0.0011598403 4.7765621)
(-0.0010397605 -0.00094948771 5.0529377)
(-0.00072221054 -0.00071471688 5.1310079)
(-0.00096050502 -0.0010364336 5.0529376)
(-0.0011690227 -0.0018433268 4.7765703)
(0.00025839795 -0.0011117614 5.2288321)
(0.0025188065 0.00079127673 5.3633512)
(0.0024621132 0.0024700839 5.3791621)
(0.00078021157 0.0025220904 5.3633494)
(-0.0011208606 0.00025780485 5.2288336)
(-6.9644527e-05 1.5863941e-05 0.98282145)
(-0.00010520159 7.2607805e-06 1.1152353)
(-6.6982122e-05 -6.6525595e-05 1.163439)
(6.580493e-06 -0.00010495509 1.1152372)
(1.5835728e-05 -6.9507686e-05 0.98282575)
(-0.001022911 -0.00019924749 2.6489955)
(-0.0011894824 -0.00052827065 2.9432387)
(-0.00098756379 -0.00098302656 3.047873)
(-0.00053327484 -0.001186932 2.9432418)
(-0.00020223396 -0.0010225982 2.6490058)
(-0.0020543457 -0.00061713502 3.9342393)
(-0.0020595786 -0.0011121402 4.2783722)
(-0.0017117683 -0.0017048796 4.3936894)
(-0.0011203459 -0.0020553791 4.2783746)
(-0.00062311878 -0.0020544717 3.9342523)
(-0.0022217742 -0.0011251602 4.8080685)
(-0.0015576037 -0.001170173 5.0917325)
(-0.0011362072 -0.0011292694 5.172855)
(-0.0011791083 -0.0015534644 5.0917339)
(-0.0011322134 -0.0022220448 4.8080783)
(-0.00051001985 -0.0010823811 5.2758831)
(0.0015667358 0.00037997551 5.4206549)
(0.0016878534 0.0016942851 5.4401272)
(0.00037065611 0.0015701625 5.4206537)
(-0.0010897939 -0.00050992136 5.2758862)
(-7.2417431e-05 1.8883209e-05 0.98484378)
(-0.00010847729 2.3487947e-06 1.1175228)
(-6.8938126e-05 -6.9730299e-05 1.1658284)
(2.9736495e-06 -0.00010876775 1.1175247)
(1.9741446e-05 -7.2388698e-05 0.98484733)
(-0.0010608603 -0.00018835681 2.6573446)
(-0.0012402353 -0.00055452766 2.9530454)
(-0.0010225098 -0.0010202161 3.0582665)
(-0.0005569785 -0.0012386127 2.953049)