/*--------------------------------*- C++ -*----------------------------------*\
| =========                 |                                                 |
| \\      /  F ield         | OpenFOAM: The Open Source CFD Toolbox           |
|  \\    /   O peration     | Version:  2.3.x                                 |
|   \\  /    A nd           | Web:      www.OpenFOAM.org                      |
|    \\/     M anipulation  |                                                 |
\*---------------------------------------------------------------------------*/
FoamFile
{
    version     2.0;
    format      ascii;
    class       volScalarField;
    location    "0.021";
    object      C;
}
// * * * * * * * * * * * * * * * * * * * * * * * * * * * * * * * * * * * * * //

dimensions      [0 -3 0 0 1 0 0];

internalField   nonuniform List<scalar> 
10000
(
1.6361435e-05
1.748185e-05
1.7723574e-05
1.7481851e-05
1.6361437e-05
1.9541804e-05
2.0038538e-05
2.0170607e-05
2.0038536e-05
1.9541802e-05
2.0789005e-05
2.100211e-05
2.1055808e-05
2.10021e-05
2.0788991e-05
2.1169966e-05
2.124031e-05
2.1254268e-05
2.1240308e-05
2.1169962e-05
2.1270909e-05
2.1288723e-05
2.1291106e-05
2.1288723e-05
2.1270909e-05
1.9096629e-06
3.1488265e-06
3.8617152e-06
3.148823e-06
1.9096595e-06
1.0593267e-05
1.2708474e-05
1.352575e-05
1.2708467e-05
1.0593253e-05
1.7787019e-05
1.9306764e-05
1.9691983e-05
1.9306717e-05
1.7786957e-05
2.0459361e-05
2.0910756e-05
2.1002532e-05
2.0910762e-05
2.0459365e-05
2.110937e-05
2.123377e-05
2.1251046e-05
2.1233773e-05
2.1109392e-05
2.5733724e-07
3.6173016e-07
4.2877959e-07
3.6173024e-07
2.5733725e-07
6.265785e-06
8.0147787e-06
8.6522332e-06
8.0147733e-06
6.2657789e-06
1.412567e-05
1.6234764e-05
1.6950343e-05
1.6234804e-05
1.4125709e-05
1.8957785e-05
2.0148288e-05
2.0415898e-05
2.0148329e-05
1.8957839e-05
2.0740957e-05
2.1104244e-05
2.1156354e-05
2.1104252e-05
2.0741038e-05
9.8553141e-08
1.2910875e-07
1.3922521e-07
1.2910927e-07
9.855421e-08
3.4161793e-06
5.2464859e-06
5.9098641e-06
5.246503e-06
3.4162112e-06
1.1103658e-05
1.3589015e-05
1.4408934e-05
1.3589055e-05
1.1103713e-05
1.710428e-05
1.8970873e-05
1.9435312e-05
1.8970908e-05
1.7104354e-05
2.0049428e-05
2.0837678e-05
2.0960742e-05
2.0837694e-05
2.0049476e-05
4.8490134e-08
7.2573794e-08
8.1507434e-08
7.2574129e-08
4.8490693e-08
1.8063219e-06
3.2686755e-06
3.920637e-06
3.2686913e-06
1.8063421e-06
8.7481587e-06
1.1284385e-05
1.2204169e-05
1.128441e-05
8.748204e-06
1.5233418e-05
1.7596624e-05
1.8255364e-05
1.7596636e-05
1.5233454e-05
1.9133587e-05
2.0399453e-05
2.0632537e-05
2.0399445e-05
1.9133575e-05
2.6048954e-08
4.1254452e-08
4.8624246e-08
4.1254631e-08
2.6049252e-08
1.011811e-06
1.9398272e-06
2.4455595e-06
1.9398359e-06
1.0118221e-06
7.0324778e-06
9.4186373e-06
1.032332e-05
9.4186559e-06
7.032515e-06
1.3556852e-05
1.6198534e-05
1.7004568e-05
1.6198556e-05
1.3556892e-05
1.8101778e-05
1.9825523e-05
2.0186112e-05
1.9825546e-05
1.8101801e-05
1.5822362e-08
2.4142072e-08
2.8743038e-08
2.4142117e-08
1.5822479e-08
6.3515304e-07
1.175525e-06
1.496067e-06
1.1755276e-06
6.3515774e-07
5.7445904e-06
7.9660386e-06
8.8138113e-06
7.96605e-06
5.7446177e-06
1.2125822e-05
1.4881208e-05
1.5787084e-05
1.4881217e-05
1.2125842e-05
1.70556e-05
1.9168476e-05
1.966259e-05
1.9168493e-05
1.7055609e-05
1.0617573e-08
1.5340801e-08
1.7899361e-08
1.5340757e-08
1.0617577e-08
4.3716522e-07
7.6998649e-07
9.6034699e-07
7.6998485e-07
4.3716563e-07
4.7222383e-06
6.8187338e-06
7.6098649e-06
6.8187356e-06
4.7222477e-06
1.0911573e-05
1.3683991e-05
1.464407e-05
1.3683988e-05
1.0911575e-05
1.6047013e-05
1.846477e-05
1.9086612e-05
1.8464781e-05
1.6047015e-05
7.5366789e-09
1.0606787e-08
1.2084558e-08
1.0606731e-08
7.536652e-09
3.1648488e-07
5.4598432e-07
6.6555872e-07
5.4598188e-07
3.1648403e-07
3.8765667e-06
5.8712322e-06
6.6221698e-06
5.871231e-06
3.8765686e-06
9.8573486e-06
1.2599902e-05
1.3584318e-05
1.2599895e-05
9.8573469e-06
1.5088121e-05
1.7732203e-05
1.8471597e-05
1.7732219e-05
1.5088134e-05
5.4919054e-09
7.7704158e-09
8.7491787e-09
7.7703532e-09
5.4918509e-09
2.3432986e-07
4.0825538e-07
4.9241954e-07
4.0825242e-07
2.3432778e-07
3.1631547e-06
5.0559512e-06
5.7840263e-06
5.0559418e-06
3.163143e-06
8.9298642e-06
1.1621644e-05
1.260769e-05
1.1621623e-05
8.9298477e-06
1.4182919e-05
1.6984515e-05
1.7824012e-05
1.6984502e-05
1.4182903e-05
4.0696875e-09
5.8739284e-09
6.6136163e-09
5.8738817e-09
4.0696454e-09
1.7599928e-07
3.1389738e-07
3.7899257e-07
3.1389507e-07
1.7599759e-07
2.5740937e-06
4.3354042e-06
5.0447737e-06
4.3353933e-06
2.5740807e-06
8.0917903e-06
1.0732672e-05
1.171305e-05
1.0732653e-05
8.0917758e-06
1.3332542e-05
1.6236561e-05
1.7157935e-05
1.6236547e-05
1.3332531e-05
3.0515478e-09
4.5090783e-09
5.1188029e-09
4.5090354e-09
3.051507e-09
1.3351682e-07
2.4446357e-07
2.978471e-07
2.4446137e-07
1.3351512e-07
2.0909681e-06
3.6913275e-06
4.3804191e-06
3.691311e-06
2.0909506e-06
7.3326772e-06
9.9261766e-06
1.08916e-05
9.926151e-06
7.3326546e-06
1.2536525e-05
1.5500772e-05
1.648393e-05
1.550073e-05
1.2536488e-05
2.3135106e-09
3.4953782e-09
4.0094662e-09
3.4953474e-09
2.3134836e-09
1.0227162e-07
1.9190303e-07
2.3640052e-07
1.9190137e-07
1.0227045e-07
1.6998323e-06
3.1261578e-06
3.7780125e-06
3.1261407e-06
1.6998172e-06
6.6451062e-06
9.1847801e-06
1.0141531e-05
9.1847583e-06
6.6450858e-06
1.17939e-05
1.4787728e-05
1.5815687e-05
1.478769e-05
1.1793867e-05
1.7740202e-09
2.7273974e-09
3.1625891e-09
2.7273724e-09
1.7739992e-09
7.9148473e-08
1.5141579e-07
1.8865713e-07
1.5141439e-07
7.9147527e-08
1.3863622e-06
2.6348137e-06
3.2392639e-06
2.6347945e-06
1.3863475e-06
6.0213319e-06
8.500437e-06
9.4466473e-06
8.5004142e-06
6.021306e-06
1.1100777e-05
1.4101797e-05
1.5159451e-05
1.4101752e-05
1.1100735e-05
1.376041e-09
2.1392754e-09
2.5055073e-09
2.139261e-09
1.3760314e-09
6.1906694e-08
1.1995918e-07
1.5103111e-07
1.1995831e-07
6.1906222e-08
1.1361946e-06
2.2128452e-06
2.7621681e-06
2.2128288e-06
1.1361845e-06
5.4536708e-06
7.867905e-06
8.8006701e-06
7.8678872e-06
5.4536467e-06
1.0453137e-05
1.3446652e-05
1.4521805e-05
1.3446625e-05
1.0453108e-05
1.0794018e-09
1.6867019e-09
1.9911869e-09
1.6866952e-09
1.0793994e-09
4.8932295e-08
9.5446426e-08
1.2117056e-07
9.5445967e-08
4.8932137e-08
9.3646578e-07
1.8553377e-06
2.3446447e-06
1.855325e-06
9.364595e-07
4.9355737e-06
7.2814385e-06
8.1986104e-06
7.2814231e-06
4.9355487e-06
9.8458196e-06
1.2821767e-05
1.3904637e-05
1.2821755e-05
9.8457986e-06
8.5563199e-10
1.3378408e-09
1.5878555e-09
1.337843e-09
8.556381e-10
3.9060212e-08
7.6342075e-08
9.7468351e-08
7.6342113e-08
3.9060432e-08
7.7630683e-07
1.5562496e-06
1.9848585e-06
1.5562436e-06
7.7630646e-07
4.4617495e-06
6.7366932e-06
7.6368738e-06
6.7366838e-06
4.4617322e-06
9.275357e-06
1.2228268e-05
1.3311832e-05
1.2228282e-05
9.275355e-06
6.8469645e-10
1.0685917e-09
1.2718806e-09
1.0686005e-09
6.8470772e-10
3.1458762e-08
6.1452637e-08
7.8700024e-08
6.1453061e-08
3.1459225e-08
6.4702699e-07
1.3084138e-06
1.6792891e-06
1.3084151e-06
6.4703136e-07
4.0278859e-06
6.2295619e-06
7.1115777e-06
6.2295591e-06
4.0278782e-06
8.7375721e-06
1.1663826e-05
1.2742942e-05
1.1663859e-05
8.7375859e-06
5.5246906e-10
8.6022925e-10
1.024663e-09
8.6024331e-10
5.5248473e-10
2.5534838e-08
4.9828102e-08
6.3875347e-08
4.9828846e-08
2.5535516e-08
5.4186083e-07
1.1041535e-06
1.4227935e-06
1.1041619e-06
5.4187006e-07
3.6305649e-06
5.7568387e-06
6.6198844e-06
5.7568466e-06
3.6305743e-06
8.2300195e-06
1.1128362e-05
1.22001e-05
1.1128418e-05
8.2300546e-06
4.4895914e-10
6.9820143e-10
8.3121717e-10
6.9821785e-10
4.4897646e-10
2.0863969e-08
4.0710923e-08
5.2169948e-08
4.0711827e-08
2.0864736e-08
4.5562755e-07
9.359665e-07
1.2091249e-06
9.3597985e-07
4.5563969e-07
3.2668547e-06
5.3152184e-06
6.1586302e-06
5.3152373e-06
3.2668814e-06
7.749255e-06
1.0618582e-05
1.1681057e-05
1.0618652e-05
7.7493071e-06
3.6703728e-10
5.711707e-10
6.7926924e-10
5.7118779e-10
3.6705557e-10
1.7142849e-08
3.3509075e-08
4.2903185e-08
3.3510037e-08
1.7143671e-08
3.8441052e-07
7.9707559e-07
1.0316265e-06
7.9709228e-07
3.8442488e-07
2.9344138e-06
4.9021962e-06
5.7253637e-06
4.9022281e-06
2.9344608e-06
7.2937107e-06
1.0134031e-05
1.1186794e-05
1.0134113e-05
7.2937821e-06
3.0164327e-10
4.7069276e-10
5.5923689e-10
4.7070886e-10
3.016607e-10
1.4154933e-08
2.777361e-08
3.5531775e-08
2.7774527e-08
1.415572e-08
3.2518187e-07
6.8177825e-07
8.8408564e-07
6.8179575e-07
3.251965e-07
2.6310308e-06
4.5152426e-06
5.317404e-06
4.5152858e-06
2.6310926e-06
6.8606021e-06
9.6710217e-06
1.0713883e-05
9.6711074e-06
6.8606873e-06
2.4892093e-10
3.9054197e-10
4.6388474e-10
3.9055616e-10
2.4893668e-10
1.1732395e-08
2.3169216e-08
2.9638766e-08
2.3170034e-08
1.1733112e-08
2.7567137e-07
5.8534568e-07
7.6083121e-07
5.8536242e-07
2.7568543e-07
2.3549424e-06
4.1527209e-06
4.9329201e-06
4.1527737e-06
2.3550175e-06
6.4491673e-06
9.2294072e-06
1.0263019e-05
9.229492e-06
6.4492651e-06
2.0617998e-10
3.2582579e-10
3.872264e-10
3.2583762e-10
2.0619377e-10
9.7582056e-09
1.9428234e-08
2.4871293e-08
1.9428923e-08
9.7588404e-09
2.3418117e-07
5.041519e-07
6.5723948e-07
5.0416688e-07
2.3419446e-07
2.1044066e-06
3.8128012e-06
4.5697995e-06
3.81286e-06
2.1044837e-06
6.0571476e-06
8.8054773e-06
9.8301911e-06
8.8055565e-06
6.0572515e-06
1.713453e-10
2.7304099e-10
3.2500414e-10
2.7304968e-10
1.7135666e-10
8.1413432e-09
1.6358988e-08
2.0978824e-08
1.6359495e-08
8.141874e-09
1.99307e-07
4.3529622e-07
5.6964286e-07
4.3530825e-07
1.9931858e-07
1.8776298e-06
3.4946375e-06
4.2269691e-06
3.4946981e-06
1.8777045e-06
5.684238e-06
8.3996942e-06
9.4163593e-06
8.3997637e-06
5.6843436e-06
1.4280135e-10
2.2972359e-10
2.7394816e-10
2.2973013e-10
1.4280983e-10
6.8102376e-09
1.3826212e-08
1.7766613e-08
1.3826601e-08
6.8106381e-09
1.6987566e-07
3.7668485e-07
4.9489127e-07
3.7669533e-07
1.6988471e-07
1.6729318e-06
3.1968103e-06
3.9029719e-06
3.196867e-06
1.6729958e-06
5.3286696e-06
8.0083838e-06
9.017219e-06
8.0084428e-06
5.3287704e-06
1.1929165e-10
1.9394501e-10
2.319294e-10
1.9394925e-10
1.1929785e-10
5.7090684e-09
1.1723143e-08
1.5108977e-08
1.1723404e-08
5.709363e-09
1.4496e-07
3.2657561e-07
4.311126e-07
3.2658343e-07
1.4496693e-07
1.4886787e-06
2.918743e-06
3.5971329e-06
2.91879e-06
1.4887337e-06
4.9907342e-06
7.6328194e-06
8.6343154e-06
7.6328635e-06
4.9908259e-06
9.9891886e-11
1.6416775e-10
1.970011e-10
1.6417026e-10
9.9895643e-11
4.7966153e-09
9.9637939e-09
1.2888182e-08
9.9639553e-09
4.7967962e-09
1.2385745e-07
2.8345344e-07
3.7617501e-07
2.8345905e-07
1.2386195e-07
1.3234231e-06
2.6595391e-06
3.308385e-06
2.659578e-06
1.3234641e-06
4.668586e-06
7.269189e-06
8.2632435e-06
7.2692227e-06
4.6686627e-06
8.3829816e-11
1.3926126e-10
1.6774854e-10
1.3926252e-10
8.383142e-11
4.0382099e-09
8.4850986e-09
1.1018933e-08
8.4851807e-09
4.0382892e-09
1.059559e-07
2.4624188e-07
3.2859176e-07
2.4624486e-07
1.0595808e-07
1.1756333e-06
2.4191978e-06
3.0369735e-06
2.4192218e-06
1.1756576e-06
4.3628217e-06
6.9195437e-06
7.9061816e-06
6.9195615e-06
4.3628749e-06
7.0491808e-11
1.1831701e-10
1.4311473e-10
1.1831751e-10
7.0491901e-11
3.4060698e-09
7.2357837e-09
9.4371433e-09
7.2358164e-09
3.4060776e-09
9.073959e-08
2.1399393e-07
2.8720304e-07
2.1399517e-07
9.0740107e-08
1.0434988e-06
2.1962033e-06
2.7820973e-06
2.1962189e-06
1.0435097e-06
4.0714421e-06
6.5802507e-06
7.5586439e-06
6.580261e-06
4.0714753e-06
5.9393948e-11
1.0070108e-10
1.2229095e-10
1.007004e-10
5.9392899e-11
2.878242e-09
6.1803836e-09
8.093845e-09
6.1803451e-09
2.8781945e-09
7.779971e-08
1.86103e-07
2.5113945e-07
1.8610233e-07
7.77988e-08
9.257653e-07
1.9910794e-06
2.5439987e-06
1.9910817e-06
9.2576302e-07
3.7955218e-06
6.2541232e-06
7.2236028e-06
6.2541182e-06
3.7955286e-06
5.0129524e-11
8.5818936e-11
1.0463282e-10
8.5817713e-11
5.0127975e-11
2.4361097e-09
5.2849915e-09
6.9496882e-09
5.2849208e-09
2.4360376e-09
6.6767726e-08
1.6189966e-07
2.196544e-07
1.6189808e-07
6.6766121e-08
8.2076073e-07
1.8022485e-06
2.3218631e-06
1.8022431e-06
8.2075049e-07
3.5329e-06
5.9371894e-06
6.8967075e-06
5.9371781e-06
3.5328895e-06
4.2388667e-11
7.3239859e-11
8.9636004e-11
7.3238287e-11
4.238676e-11
2.065501e-09
4.5251808e-09
5.9739299e-09
4.5250871e-09
2.0654107e-09
5.7366476e-08
1.409271e-07
1.9218236e-07
1.4092472e-07
5.736431e-08
7.2747165e-07
1.6296003e-06
2.1160784e-06
1.6295861e-06
7.2745379e-07
3.2849774e-06
5.6326502e-06
6.5814736e-06
5.6326264e-06
3.2849443e-06
3.5894777e-11
6.2572132e-11
7.6861022e-11
6.2570715e-11
3.5892965e-11
1.7536121e-09
3.8783102e-09
5.1393361e-09
3.8782247e-09
1.7535255e-09
4.9326601e-08
1.2270271e-07
1.6815475e-07
1.2270044e-07
4.9324442e-08
6.4437451e-07
1.4714789e-06
1.9252531e-06
1.471463e-06
6.4435471e-07
3.0493362e-06
5.336318e-06
6.273109e-06
5.3362934e-06
3.0492942e-06
3.0448703e-11
5.3537056e-11
6.598833e-11
5.3535643e-11
3.0446918e-11
1.4912739e-09
3.3284488e-09
4.4263067e-09
3.3283626e-09
1.4911879e-09
4.2462028e-08
1.0691561e-07
1.4719929e-07
1.069132e-07
4.2459807e-08
5.707153e-07
1.3278341e-06
1.7498005e-06
1.3278141e-06
5.7069296e-07
2.827689e-06
5.0522281e-06
5.9759782e-06
5.0521936e-06
2.8276327e-06
2.5859203e-11
4.5852536e-11
5.6699948e-11
4.5851341e-11
2.5857834e-11
1.2695491e-09
2.8590954e-09
3.8148668e-09
2.8590221e-09
1.2694827e-09
3.657409e-08
9.3185956e-08
1.288603e-07
9.3183855e-08
3.6572337e-08
5.0515449e-07
1.1968469e-06
1.587978e-06
1.1968289e-06
5.0513574e-07
2.6175119e-06
4.7757752e-06
5.6847467e-06
4.7757438e-06
2.6174596e-06
2.1997023e-11
3.9329619e-11
4.8786612e-11
3.9328518e-11
2.1995835e-11
1.0824552e-09
2.459374e-09
3.2921359e-09
2.459306e-09
1.0823973e-09
3.1537661e-08
8.1291862e-08
1.1288821e-07
8.1289832e-08
3.1536083e-08
4.4714604e-07
1.0784441e-06
1.4402979e-06
1.0784246e-06
4.4712792e-07
2.4206571e-06
4.5114325e-06
5.4049829e-06
4.5113944e-06
2.4205989e-06
1.8726179e-11
3.3760142e-11
4.2004048e-11
3.3759387e-11
1.8725386e-11
9.2357033e-10
2.1169327e-09
2.8425299e-09
2.1168856e-09
9.2353153e-10
2.7201843e-08
7.092579e-08
9.8892238e-08
7.0924342e-08
2.7200765e-08
3.9548172e-07
9.7068875e-07
1.3045911e-06
9.7067392e-07
3.9546872e-07
2.2342357e-06
4.2540192e-06
5.1302805e-06
4.25399e-06
2.2341906e-06
1.5965488e-11
2.9027294e-11
3.6219788e-11
2.9026653e-11
1.5964817e-11
7.8912915e-10
1.8250408e-09
2.4578813e-09
1.8250004e-09
7.8909607e-10
2.3487047e-08
6.195093e-08
8.67151e-08
6.1949644e-08
2.3486106e-08
3.4983951e-07
8.7372964e-07
1.1814661e-06
8.7371525e-07
3.4982747e-07
2.0604391e-06
4.0088862e-06
4.8672497e-06
4.0088528e-06
2.0603918e-06
1.3616112e-11
2.497129e-11
3.124547e-11
2.497091e-11
1.3615731e-11
6.744189e-10
1.5740941e-09
2.1259987e-09
1.57407e-09
6.7440005e-10
2.027682e-08
5.4110169e-08
7.6025025e-08
5.4109382e-08
2.0276274e-08
3.0913833e-07
7.8555329e-07
1.0685357e-06
7.8554396e-07
3.0913099e-07
1.8960398e-06
3.7700906e-06
4.6085612e-06
3.770068e-06
1.8960084e-06
1.1629442e-11
2.1520173e-11
2.7000621e-11
2.1519844e-11
1.1629104e-11
5.7719268e-10
1.35997e-09
1.8419601e-09
1.359949e-09
5.7717587e-10
1.7524545e-08
4.7323515e-08
6.6734393e-08
4.7322812e-08
1.752405e-08
2.7325644e-07
7.0650997e-07
9.6659514e-07
7.0650106e-07
2.7324951e-07
1.7436083e-06
3.5437897e-06
4.3619849e-06
3.5437639e-06
1.7435754e-06
9.9304903e-12
1.8547809e-11
2.3334129e-11
1.8547651e-11
9.9303354e-12
4.9383981e-10
1.1749893e-09
1.5958498e-09
1.1749792e-09
4.938321e-10
1.5136559e-08
4.1371486e-08
5.8552658e-08
4.1371137e-08
1.5136328e-08
2.412e-07
6.345404e-07
8.7307962e-07
6.3453566e-07
2.4119658e-07
1.5995073e-06
3.3231295e-06
4.1190495e-06
3.3231146e-06
1.5994891e-06
8.4925806e-12
1.6016266e-11
2.0203906e-11
1.6016109e-11
8.4924104e-12
4.2314273e-10
1.0170324e-09
1.3851722e-09
1.0170223e-09
4.2313423e-10
1.3089615e-08
3.6221648e-08
5.144937e-08
3.6221295e-08
1.3089361e-08
2.1301198e-07
5.7024504e-07
7.8903496e-07
5.7024007e-07
2.1300819e-07
1.4666996e-06
3.1152252e-06
3.8887589e-06
3.1152068e-06
1.4666785e-06
7.2570705e-12
1.3824171e-11
1.7486454e-11
1.3824113e-11
7.2570042e-12
3.6225131e-10
8.7985391e-10
1.2017212e-09
8.7985013e-10
3.6224802e-10
1.1306415e-08
3.1684729e-08
4.5168112e-08
3.1684593e-08
1.1306317e-08
1.8777195e-07
5.115643e-07
7.1179757e-07
5.1156221e-07
1.8777044e-07
1.3411644e-06
2.9122713e-06
3.6614193e-06
2.9122621e-06
1.3411547e-06
6.2115595e-12
1.1956635e-11
1.5166422e-11
1.1956547e-11
6.2114506e-12
3.1062242e-10
7.6270568e-10
1.0447128e-09
7.6269999e-10
3.1061699e-10
9.7796054e-09
2.7762924e-08
3.9721893e-08
2.7762724e-08
9.7794447e-09
1.6564976e-07
4.5932927e-07
6.4267385e-07
4.5932632e-07
1.6564737e-07
1.2262319e-06
2.7223415e-06
3.4473247e-06
2.7223281e-06
1.2262176e-06
5.308908e-12
1.0330082e-11
1.3140664e-11
1.0330046e-11
5.3088557e-12
2.6594491e-10
6.6038263e-10
9.0721402e-10
6.6038032e-10
2.6594234e-10
8.4439326e-09
2.429017e-08
3.4881543e-08
2.429009e-08
8.4438595e-09
1.4578766e-07
4.1149795e-07
5.789504e-07
4.1149674e-07
1.4578661e-07
1.1175413e-06
2.5366628e-06
3.2355065e-06
2.5366562e-06
1.1175346e-06
4.5459879e-12
8.9451449e-12
1.1412201e-11
8.9450713e-12
4.5458901e-12
2.2811562e-10
5.7306749e-10
7.8962828e-10
5.7306278e-10
2.2811077e-10
7.3027046e-09
2.1293347e-08
3.0692197e-08
2.1293185e-08
7.3025621e-09
1.2844861e-07
3.690967e-07
5.2217426e-07
3.6909435e-07
1.2844653e-07
1.0187492e-06
2.3642405e-06
3.0375478e-06
2.3642291e-06
1.018737e-06
3.8841102e-12
7.7315466e-12
9.8934221e-12
7.7314989e-12
3.8840442e-12
1.9522252e-10
4.9634043e-10
6.8600728e-10
4.9633742e-10
1.9521927e-10
6.2999637e-09
1.8624969e-08
2.694757e-08
1.8624868e-08
6.2998702e-09
1.128321e-07
3.3011558e-07
4.6961951e-07
3.3011415e-07
1.1283078e-07
9.2521575e-07
2.1953656e-06
2.8412094e-06
2.1953583e-06
9.2520818e-07
3.325999e-12
6.7000092e-12
8.5996329e-12
6.6999296e-12
3.325898e-12
1.6744096e-10
4.309931e-10
5.9755415e-10
4.3098803e-10
1.6743594e-10
5.4459068e-09
1.6328707e-08
2.371548e-08
1.6328532e-08
5.4457575e-09
9.926553e-08
2.9573338e-07
4.2303547e-07
2.9573086e-07
9.9263325e-08
8.4087109e-07
2.0399156e-06
2.6593228e-06
2.0399036e-06
8.4085824e-07
2.8393629e-12
5.7903873e-12
7.4552305e-12
5.7903222e-12
2.8392826e-12
1.4316371e-10
3.7320986e-10
5.1908955e-10
3.7320573e-10
1.4315973e-10
4.6919906e-09
1.4272171e-08
2.0808645e-08
1.4272029e-08
4.6918721e-09
8.7002544e-08
2.6398241e-07
3.7970933e-07
2.6398035e-07
8.7000787e-08
7.6086951e-07
1.8873064e-06
2.4784164e-06
1.8872965e-06
7.6085922e-07
2.4304472e-12
5.01959e-12
6.4831935e-12
5.0195043e-12
2.430346e-12
1.2273377e-10
3.2415679e-10
4.5231854e-10
3.2415131e-10
1.2272871e-10
4.0525951e-09
1.2509619e-08
1.8309649e-08
1.2509427e-08
4.0524417e-09
7.6411127e-08
2.361488e-07
3.4154362e-07
2.3614592e-07
7.6408765e-08
6.8935161e-07
1.7481977e-06
2.3124875e-06
1.7481837e-06
6.8933721e-07
2.0720041e-12
4.3353999e-12
5.6173995e-12
4.3353247e-12
2.0719189e-12
1.0478637e-10
2.8049588e-10
3.9267551e-10
2.8049108e-10
1.0478212e-10
3.4853391e-09
1.0921242e-08
1.604734e-08
1.0921071e-08
3.4852088e-09
6.6797793e-08
2.1031529e-07
3.0585738e-07
2.1031266e-07
6.6795744e-08
6.2134235e-07
1.6112244e-06
2.146908e-06
1.6112113e-06
6.2132943e-07
1.7722224e-12
3.7582136e-12
4.88523e-12
3.758129e-12
1.7721286e-12
8.9756502e-11
2.4360388e-10
3.4215356e-10
2.4359844e-10
8.9751797e-11
3.0068635e-09
9.5673107e-09
1.4112958e-08
9.5671149e-09
3.0067173e-09
5.8551811e-08
1.8783549e-07
2.7465706e-07
1.878324e-07
5.8549451e-08
5.6112505e-07
1.4877203e-06
1.9967297e-06
1.4877045e-06
5.611096e-07
1.5079555e-12
3.2423046e-12
4.2283196e-12
3.2422295e-12
1.5078754e-12
7.6478413e-11
2.1053807e-10
2.966948e-10
2.1053323e-10
7.6474387e-11
2.5800652e-09
8.3390246e-09
1.2349516e-08
8.3388476e-09
2.5799386e-09
5.1032137e-08
1.668529e-07
2.453107e-07
1.6685e-07
5.1030038e-08
5.0367128e-07
1.3656522e-06
1.8462701e-06
1.3656365e-06
5.0365689e-07
1.2882729e-12
2.8097133e-12
3.6761469e-12
2.809637e-12
1.2881924e-12
6.5427749e-11
1.82773e-10
2.5842803e-10
1.8276806e-10
6.5423693e-11
2.2224932e-09
7.2993406e-09
1.085228e-08
7.2991583e-09
2.2223644e-09
4.4634085e-08
1.4875422e-07
2.1988327e-07
1.4875118e-07
4.4631907e-08
4.5333837e-07
1.2569082e-06
1.7115017e-06
1.2568913e-06
4.5332294e-07
1.093433e-12
2.4201264e-12
3.1768452e-12
2.420059e-12
1.0933643e-12
5.5605421e-11
1.57699e-10
2.237253e-10
1.5769464e-10
5.560195e-11
1.9016428e-09
6.3492172e-09
9.4769511e-09
6.3490531e-09
1.9015312e-09
3.8768339e-08
1.3175149e-07
1.9580668e-07
1.3174865e-07
3.8766398e-08
4.0511406e-07
1.1489089e-06
1.5758126e-06
1.1488921e-06
4.0509963e-07
9.3268183e-13
2.0959769e-12
2.7604214e-12
2.0959129e-12
9.3261718e-13
4.7493549e-11
1.368112e-10
1.9474645e-10
1.3680705e-10
4.7490275e-11
1.6350376e-09
5.5519138e-09
8.319466e-09
5.5517565e-09
1.6349315e-09
3.3824594e-08
1.172363e-07
1.7516581e-07
1.1723353e-07
3.382272e-08
3.6336461e-07
1.053975e-06
1.4559534e-06
1.0539581e-06
3.6335026e-07
7.8915638e-13
1.8015991e-12
2.3806205e-12
1.8015434e-12
7.8910156e-13
4.0235045e-11
1.1778869e-10
1.6823858e-10
1.1778506e-10
4.0232262e-11
1.3942344e-09
4.8172687e-09
7.2472012e-09
4.8171289e-09
1.3941431e-09
2.9264357e-08
1.0349707e-07
1.5547084e-07
1.0349452e-07
2.92627e-08
3.2315682e-07
9.5911207e-07
1.3345236e-06
9.5909564e-07
3.2314354e-07
6.7182653e-13
1.5590017e-12
2.0669398e-12
1.5589514e-12
6.7177737e-13
3.4296425e-11
1.0209634e-10
1.4632273e-10
1.0209306e-10
3.4293924e-11
1.1961094e-09
4.2072049e-09
6.3543953e-09
4.2070776e-09
1.1960268e-09
2.5463144e-08
9.1908112e-08
1.3879464e-07
9.1905753e-08
2.5461625e-08
2.8880698e-07
8.7695274e-07
1.228904e-06
8.7693704e-07
2.8879447e-07
5.6629263e-13
1.3365787e-12
1.7780339e-12
1.3365355e-12
5.6625136e-13
2.8942975e-11
8.7667739e-11
1.2607718e-10
8.766491e-11
2.894087e-11
1.0158347e-09
3.6397368e-09
5.5192416e-09
3.6396255e-09
1.0157644e-09
2.1931982e-08
8.0840694e-08
1.2273742e-07
8.0838566e-08
2.1930656e-08
2.5551545e-07
7.9422086e-07
1.1210613e-06
7.9420591e-07
2.5550406e-07
4.8097029e-13
1.1553972e-12
1.5422458e-12
1.1553596e-12
4.8093459e-13
2.4611965e-11
7.5905146e-11
1.0954051e-10
7.5902677e-11
2.4610142e-11
8.6924175e-10
3.1743546e-09
4.8327388e-09
3.1742567e-09
8.691805e-10
1.9026157e-08
7.1634814e-08
1.0933646e-07
7.1632911e-08
1.9024987e-08
2.274971e-07
7.237453e-07
1.0288677e-06
7.237315e-07
2.2748677e-07
4.0358597e-13
9.8744589e-13
1.3226119e-12
9.8741409e-13
4.0355635e-13
2.0674983e-11
6.4969259e-11
9.408908e-11
6.4967166e-11
2.0673467e-11
7.347359e-10
2.7366634e-09
4.1832474e-09
2.7365793e-09
7.3468441e-10
1.6304556e-08
6.274973e-08
9.6292439e-08
6.2748048e-08
1.6303549e-08
2.0013186e-07
6.5209763e-07
9.3380764e-07
6.5208482e-07
2.0012262e-07
3.4184466e-13
8.5253615e-13
1.1459169e-12
8.5250913e-13
3.4181974e-13
1.7532358e-11
5.617986e-11
8.1651353e-11
5.6178079e-11
1.7531081e-11
6.2687137e-10
2.3830082e-09
3.6574781e-09
2.3829361e-09
6.2682775e-10
1.4098235e-08
5.547817e-08
8.5587866e-08
5.5476703e-08
1.4097371e-08
1.7748974e-07
5.921929e-07
8.5410706e-07
5.9218136e-07
1.7748161e-07
2.8531476e-13
7.2585864e-13
9.7912708e-13
7.258362e-13
2.8529433e-13
1.4648294e-11
4.7901456e-11
6.9873008e-11
4.7899972e-11
1.4647245e-11
5.2694456e-10
2.0460488e-09
3.153339e-09
2.045988e-09
5.2690837e-10
1.2011838e-08
4.8370739e-08
7.5031719e-08
4.8369469e-08
1.2011107e-08
1.5516689e-07
5.3057224e-07
7.7092092e-07
5.305618e-07
1.5515975e-07
2.4091942e-13
6.2579882e-13
8.4724358e-13
6.2578008e-13
2.4090259e-13
1.2382681e-11
4.1360453e-11
6.0556828e-11
4.1359212e-11
1.2381816e-11
4.4812163e-10
1.7785623e-09
2.7526121e-09
1.7785111e-09
4.4809161e-10
1.0349901e-08
4.2663508e-08
6.6537509e-08
4.2662418e-08
1.0349286e-08
1.3705423e-07
4.8013572e-07
7.0270155e-07
4.8012644e-07
1.3704806e-07
1.9982156e-13
5.3040059e-13
7.2076533e-13
5.3038529e-13
1.9980793e-13
1.0280302e-11
3.5104119e-11
5.1592228e-11
3.5103103e-11
1.0279599e-11
3.7427294e-10
1.5197312e-09
2.3621454e-09
1.5196888e-09
3.7424836e-10
8.7602176e-09
3.6999596e-08
5.8027646e-08
3.6998672e-08
8.7597047e-09
1.1898991e-07
4.275009e-07
6.3041555e-07
4.274927e-07
1.189846e-07
1.6814923e-13
4.5656486e-13
6.2282609e-13
4.5655221e-13
1.6813818e-13
8.6599821e-12
3.0261682e-11
4.4650344e-11
3.026084e-11
8.659412e-12
3.1715265e-10
1.3185891e-09
2.0584992e-09
1.3185537e-09
3.1713258e-10
7.5199004e-09
3.2552781e-08
5.1337442e-08
3.2551994e-08
7.5194757e-09
1.046619e-07
3.8546992e-07
5.726332e-07
3.8546267e-07
1.0465738e-07
1.3844855e-13
3.8486284e-13
5.2707941e-13
3.8485268e-13
1.3843971e-13
7.136731e-12
2.5543179e-11
3.7839506e-11
2.5542502e-11
7.1362744e-12
2.6292266e-10
1.1202823e-09
1.7567867e-09
1.1202535e-09
2.6290646e-10
6.3171966e-09
2.8057207e-08
4.4503806e-08
2.8056553e-08
6.3168481e-09
9.0169338e-08
3.4081694e-07
5.1024499e-07
3.4081067e-07
9.0165513e-08
1.1608312e-13
3.307377e-13
4.5481698e-13
3.3072932e-13
1.1607603e-13
5.9898857e-12
2.1982341e-11
3.2700856e-11
2.1981781e-11
5.9895186e-12
2.2196995e-10
9.7012985e-10
1.5283517e-09
9.7010583e-10
2.2195684e-10
5.4020453e-09
2.4622456e-08
3.9280018e-08
2.46219e-08
5.4017592e-09
7.8981325e-08
3.0619057e-07
4.618649e-07
3.0618505e-07
7.8978095e-08
9.4762871e-14
2.7696602e-13
3.8246565e-13
2.7695941e-13
9.4757281e-14
4.8937536e-12
1.8431879e-11
2.7536071e-11
1.8431437e-11
4.893464e-12
1.8242481e-10
8.1861826e-10
1.2957786e-09
8.1859908e-10
1.8241439e-10
4.4988637e-09
2.1068828e-08
3.3813308e-08
2.1068374e-08
4.4986327e-09
6.7453162e-08
2.6856524e-07
4.0836969e-07
2.6856055e-07
6.7450478e-08
7.9164106e-14
2.3764036e-13
3.2960389e-13
2.3763489e-13
7.9159642e-14
4.0921548e-12
1.583696e-11
2.3765278e-11
1.5836594e-11
4.0919233e-12
1.5343764e-10
7.0759512e-10
1.1255151e-09
7.075791e-10
1.5342926e-10
3.8326252e-09
1.844447e-08
2.9777896e-08
1.8444085e-08
3.8324366e-09
5.8845067e-08
2.4042586e-07
3.6840483e-07
2.4042173e-07
5.8842813e-08
6.3963915e-14
1.9739939e-13
2.7501455e-13
1.9739517e-13
6.396047e-14
3.3088306e-12
1.3171138e-11
1.9854908e-11
1.3170854e-11
3.3086516e-12
1.2480298e-10
5.9213496e-10
9.46604e-10
5.9212242e-10
1.2479645e-10
3.1592995e-09
1.5646058e-08
2.5419213e-08
1.5645749e-08
3.1591504e-09
4.9749055e-08
2.089227e-07
3.2280505e-07
2.0891925e-07
4.9747222e-08
5.3260213e-14
1.6918316e-13
2.3681046e-13
1.6917967e-13
5.3257484e-14
2.7576967e-12
1.1304047e-11
1.7121644e-11
1.1303812e-11
2.7575547e-12
1.046259e-10
5.1112829e-10
8.2132034e-10
5.1111783e-10
1.0462069e-10
2.6825769e-09
1.3670012e-08
2.2345894e-08
1.366975e-08
2.6824559e-09
4.3247694e-08
1.8645107e-07
2.903531e-07
1.8644806e-07
4.3246166e-08
4.248523e-14
1.3909114e-13
1.9562807e-13
1.3908852e-13
4.2483194e-14
2.201156e-12
9.3040452e-12
1.4161495e-11
9.3038686e-12
2.20105e-12
8.4011697e-11
4.232458e-10
6.837685e-10
4.2323782e-10
8.4007766e-11
2.18355e-09
1.1471395e-08
1.8876765e-08
1.147119e-08
2.1834572e-09
3.6116244e-08
1.6019689e-07
2.5164676e-07
1.6019443e-07
3.6115036e-08
3.5317654e-14
1.1924774e-13
1.6854641e-13
1.1924561e-13
3.5316071e-14
1.8314727e-12
7.9876443e-12
1.2218741e-11
7.9875005e-12
1.8313901e-12
7.0314073e-11
3.6536636e-10
5.9343192e-10
3.6535979e-10
7.0310986e-11
1.851024e-09
1.0016443e-08
1.658654e-08
1.0016272e-08
1.8509499e-09
3.1335391e-08
1.4270089e-07
2.2594073e-07
1.4269877e-07
3.13344e-08
2.7678073e-14
9.6647844e-14
1.3732986e-13
9.6646333e-14
2.7676964e-14
1.4359856e-12
6.4806552e-12
9.9671582e-12
6.4805524e-12
1.4359276e-12
5.5469815e-11
2.9820638e-10
4.8720974e-10
2.9820158e-10
5.546762e-11
1.4810616e-09
8.2839319e-09
1.3816301e-08
8.283802e-09
1.4810076e-09
2.5744763e-08
1.2080812e-07
1.9306137e-07
1.2080645e-07
2.5744015e-08
2.3105443e-14
8.3249693e-14
1.1887363e-13
8.3248518e-14
2.3104616e-14
1.1998849e-12
5.5900513e-12
8.6403e-12
5.5899709e-12
1.1998415e-12
4.6619908e-11
2.5855957e-10
4.2467641e-10
2.5855576e-10
4.6618244e-11
1.2603617e-09
7.2584839e-09
1.2180397e-08
7.2583778e-09
1.2603198e-09
2.2400595e-08
1.0780098e-07
1.7358595e-07
1.0779956e-07
2.2399995e-08
1.7544766e-14
6.58616e-14
9.4643532e-14
6.5860869e-14
1.7544268e-14
9.1131883e-13
4.426677e-12
6.8864603e-12
4.4266264e-12
9.1129259e-13
3.5647085e-11
2.060071e-10
3.4072933e-10
2.0600459e-10
3.5646054e-11
9.7912345e-10
5.8631099e-09
9.920999e-09
5.8630358e-09
9.7909631e-10
1.7921032e-08
8.9232067e-08
1.4521595e-07
8.9231014e-08
1.792062e-08
1.5095662e-14
5.8008207e-14
8.3664127e-14
5.8007679e-14
1.5095311e-14
7.8501075e-13
3.9043511e-12
6.0964587e-12
3.9043141e-12
7.8499211e-13
3.0851848e-11
1.8244251e-10
3.0294703e-10
1.8244059e-10
3.0851095e-11
8.5539494e-10
5.2330311e-09
8.8954407e-09
5.2329717e-09
8.5537437e-10
1.5911576e-08
8.0686646e-08
1.3205626e-07
8.0685762e-08
1.5911249e-08
1.0283814e-14
4.2040186e-14
6.1201804e-14
4.2040058e-14
1.0283725e-14
5.3451353e-13
2.831765e-12
4.4638595e-12
2.8317549e-12
5.3450859e-13
2.120488e-11
1.3339896e-10
2.2377887e-10
1.3339824e-10
2.1204644e-11
6.0169412e-10
3.897938e-09
6.7056055e-09
3.8979086e-09
6.0168605e-10
1.1674215e-08
6.210969e-08
1.0317648e-07
6.210916e-08
1.1674055e-08
1.6361437e-05
1.748185e-05
1.772357e-05
1.7481847e-05
1.6361433e-05
1.9541802e-05
2.0038536e-05
2.0170609e-05
2.0038539e-05
1.9541804e-05
2.0788991e-05
2.1002102e-05
2.1055814e-05
2.1002114e-05
2.0789007e-05
2.1169962e-05
2.1240309e-05
2.1254269e-05
2.1240311e-05
2.1169967e-05
2.1270909e-05
2.1288723e-05
2.1291106e-05
2.1288723e-05
2.127091e-05
1.9096596e-06
3.1488248e-06
3.8617232e-06
3.1488316e-06
1.9096647e-06
1.0593253e-05
1.2708471e-05
1.3525764e-05
1.2708484e-05
1.0593268e-05
1.7786958e-05
1.9306725e-05
1.9691994e-05
1.9306787e-05
1.7787033e-05
2.0459365e-05
2.0910761e-05
2.1002527e-05
2.0910757e-05
2.0459369e-05
2.1109391e-05
2.1233773e-05
2.1251046e-05
2.123377e-05
2.1109365e-05
2.5733729e-07
3.6173066e-07
4.2877977e-07
3.6173118e-07
2.5733795e-07
6.2657798e-06
8.014778e-06
8.6522375e-06
8.0147904e-06
6.265798e-06
1.412571e-05
1.6234815e-05
1.6950351e-05
1.6234797e-05
1.4125703e-05
1.8957838e-05
2.0148323e-05
2.0415879e-05
2.0148287e-05
1.8957805e-05
2.0741035e-05
2.1104258e-05
2.1156364e-05
2.1104256e-05
2.0740941e-05
9.8554222e-08
1.2910941e-07
1.3922533e-07
1.2910898e-07
9.8553496e-08
3.4162117e-06
5.2465075e-06
5.9098676e-06
5.2464955e-06
3.416191e-06
1.1103714e-05
1.3589068e-05
1.4408956e-05
1.3589043e-05
1.1103679e-05
1.7104357e-05
1.8970935e-05
1.9435354e-05
1.897093e-05
1.7104328e-05
2.0049483e-05
2.0837717e-05
2.0960783e-05
2.0837725e-05
2.0049491e-05
4.8490702e-08