/*--------------------------------*- C++ -*----------------------------------*\
| =========                 |                                                 |
| \\      /  F ield         | OpenFOAM: The Open Source CFD Toolbox           |
|  \\    /   O peration     | Version:  2.3.x                                 |
|   \\  /    A nd           | Web:      www.OpenFOAM.org                      |
|    \\/     M anipulation  |                                                 |
\*---------------------------------------------------------------------------*/
FoamFile
{
    version     2.0;
    format      ascii;
    class       volScalarField;
    location    "0.021";
    object      concSource;
}
// * * * * * * * * * * * * * * * * * * * * * * * * * * * * * * * * * * * * * //

dimensions      [0 -3 -1 0 1 0 0];

internalField   nonuniform List<scalar> 
10000
(
0.0030750656
0.00083494291
0.00049851177
0.00083494209
0.0030750627
4.1397297e-07
1.6904921e-07
1.2922799e-07
1.6904911e-07
4.1397276e-07
3.7544262e-08
3.0740943e-08
2.9307828e-08
3.0740946e-08
3.7544285e-08
2.5867051e-08
2.5080634e-08
2.4940795e-08
2.5080634e-08
2.5867053e-08
2.4705584e-08
2.4607632e-08
2.4596828e-08
2.4607632e-08
2.4705584e-08
0.036386635
0.035671562
0.03460049
0.035671578
0.036386652
0.00036856393
5.4452727e-05
2.706791e-05
5.445363e-05
0.00036857128
7.2324344e-07
1.6790624e-07
1.1518815e-07
1.6791914e-07
7.2332201e-07
4.9431653e-08
3.3102692e-08
3.0679371e-08
3.3102958e-08
4.9432593e-08
2.7694004e-08
2.5478932e-08
2.521394e-08
2.5478945e-08
2.7693983e-08
0.010715483
0.012168974
0.013118446
0.012168956
0.01071546
0.0037475748
0.0010180136
0.00056739622
0.0010179952
0.0037475051
1.2816215e-05
1.7182666e-06
9.14624e-07
1.7181802e-06
1.2815467e-05
1.7219724e-07
6.1571064e-08
4.9619698e-08
6.1567658e-08
1.7218585e-07
3.6801077e-08
2.7936415e-08
2.6962408e-08
2.7936197e-08
3.6796897e-08
0.0051550119
0.0058997255
0.0060385733
0.0058997364
0.0051550476
0.0080578016
0.0041007079
0.0028256403
0.0041006418
0.0080576628
0.00010740976
1.3130226e-05
6.2391168e-06
1.3129355e-05
0.00010739978
7.3018748e-07
1.4756673e-07
1.0096051e-07
1.4755879e-07
7.301061e-07
6.0650596e-08
3.3561148e-08
3.0834819e-08
3.3560821e-08
6.06459e-08
0.0028001706
0.0037467858
0.0040351467
0.0037468027
0.0028002
0.0084723682
0.0067872925
0.0056690876
0.0067872965
0.0084723898
0.00042199105
6.4328147e-05
3.0993744e-05
6.4326524e-05
0.00042197607
2.9786744e-06
4.0689777e-07
2.3931241e-07
4.0689188e-07
2.9785538e-06
1.1716653e-07
4.4947741e-08
3.8288694e-08
4.4948471e-08
1.1716774e-07
0.0016070177
0.0022981949
0.0026083826
0.0022982048
0.0016070345
0.0071366904
0.0071194161
0.006791
0.0071194308
0.0071367171
0.0010115322
0.00020315803
0.00010471214
0.00020315408
0.0010115057
1.0138973e-05
1.1254335e-06
5.9104696e-07
1.1253985e-06
1.0138438e-05
2.4741095e-07
6.6028307e-08
5.1453496e-08
6.6026914e-08
2.4740414e-07
0.0010253192
0.0014243586
0.001638027
0.0014243622
0.0010253268
0.0059031896
0.0062594198
0.0063299024
0.006259443
0.0059032224
0.0017851917
0.00046604039
0.00025965359
0.00046603858
0.0017851791
2.7891334e-05
2.9023598e-06
1.4099435e-06
2.902317e-06
2.7890668e-05
5.2846763e-07
1.0260706e-07
7.2723949e-08
1.0260453e-07
5.284587e-07
0.00071500829
0.00094723667
0.0010704397
0.00094723526
0.00071500927
0.0049817452
0.005362021
0.0054799413
0.0053620423
0.0049817675
0.0025922478
0.00085612898
0.00051539021
0.00085613798
0.0025922657
6.380726e-05
6.8358499e-06
3.1749813e-06
6.8358885e-06
6.3807496e-05
1.1040614e-06
1.6496304e-07
1.0640269e-07
1.6496118e-07
1.104065e-06
0.00052370954
0.00067988278
0.0007519242
0.00067988021
0.00052370842
0.0042331974
0.0046834094
0.0047786035
0.0046834237
0.0042332101
0.0033054267
0.0013461465
0.00087208842
0.0013461685
0.0033054606
0.00012596316
1.4752732e-05
6.7344505e-06
1.4752904e-05
0.00012596375
2.2269233e-06
2.7167069e-07
1.6014483e-07
2.7166272e-07
2.226866e-06
0.00039186479
0.0005139409
0.00056274102
0.00051393758
0.00039186164
0.0035749465
0.0041465854
0.0042523912
0.0041465926
0.0035749459
0.0038459701
0.0018851808
0.0013074202
0.0018852252
0.0038460353
0.0002216623
2.9324787e-05
1.3441792e-05
2.9325935e-05
0.0002216694
4.3227186e-06
4.5534045e-07
2.4728703e-07
4.5534858e-07
4.322825e-06
0.00029705725
0.00039913393
0.00043766544
0.00039913125
0.00029705459
0.0029987715
0.0036730155
0.0038176977
0.0036730162
0.0029987631
0.0041968705
0.0024152868
0.0017832965
0.0024153362
0.00419692
0.00035458836
5.3883801e-05
2.5212697e-05
5.3885868e-05
0.00035459752
8.0251881e-06
7.6855622e-07
3.889169e-07
7.6856637e-07
8.025283e-06
0.0002272055
0.00031368061
0.00034723329
0.00031367799
0.00022720276
0.0025011851
0.0032273782
0.0034197294
0.0032273735
0.0025011704
0.0043684952
0.0028808247
0.0022534664
0.0028808861
0.0043685468
0.00052473177
9.2068972e-05
4.4439745e-05
9.207405e-05
0.00052475357
1.4199613e-05
1.2942242e-06
6.1805812e-07
1.2943047e-06
1.4200476e-05
0.000175296
0.0002482347
0.00027796006
0.00024823266
0.00017529404
0.0020802483
0.0028110706
0.0030377773
0.002811061
0.0020802323
0.0043921357
0.003248445
0.0026720589
0.0032484934
0.0043921589
0.00072793178
0.00014694418
7.3703599e-05
0.00014695118
0.00072795591
2.3917633e-05
2.1545985e-06
9.8400318e-07
2.1547211e-06
2.391892e-05
0.00013653324
0.00019728205
0.0002235286
0.00019728029
0.00013653163
0.0017307493
0.0024289383
0.0026746263
0.0024289245
0.0017307321
0.0043083543
0.0035040972
0.0030126533
0.0035041328
0.0043083593
0.00095731994
0.00022080587
0.00011546351
0.00022081629
0.00095735188
3.8414197e-05
3.5240319e-06
1.559503e-06
3.5242933e-06
3.8416945e-05
0.00010740374
0.00015731228
0.00018018787
0.00015731114
0.00010740289
0.0014437627
0.0020852373
0.0023353204
0.0020852223
0.0014437484
0.0041535579
0.0036499295
0.0032607806
0.0036499329
0.004153529
0.0012045119
0.00031479587
0.00017175595
0.00031480504
0.0012045298
5.9020923e-05
5.6412287e-06
2.4484552e-06
5.6415028e-06
5.902357e-05
8.5333803e-05
0.00012589809
0.0001454706
0.00012589745
8.5333475e-05
0.0012091503
0.0017825594
0.0020245303
0.0017825456
0.0012091397
0.0039553454
0.0037010577
0.0034154765
0.0037010335
0.0039552952
0.001460373
0.00042888152
0.00024402472
0.0004288871
0.0014603714
8.7065993e-05
8.8168256e-06
3.7932227e-06
8.817081e-06
8.7068074e-05
6.8439374e-05
0.00010122951
0.00011768253
0.00010122948
6.8439685e-05
0.0010171518
0.0015210527
0.0017461659
0.0015210431
0.0010171475
0.0037326211
0.0036779617
0.0034861508
0.0036779082
0.0037325537
0.0017157057
0.00056179338
0.00033287208
0.00056178678
0.0017156614
0.00012378253
1.34386e-05
5.7834825e-06
1.3438407e-05
0.0001237798
5.5359938e-05
8.1875413e-05
9.5515558e-05
8.187589e-05
5.5360676e-05
0.00085933279
0.0012984855
0.0015020225
0.0012984819
0.00085933447
0.0034977799
0.0036012952
0.0034885827
0.0036012277
0.0034977108
0.001961724
0.00071112942
0.00043801367
0.0007111063
0.0019616355
0.00017015646
1.9959504e-05
8.6567957e-06
1.9958503e-05
0.00017014624
4.5116276e-05
6.6676777e-05
7.7891565e-05
6.6677683e-05
4.5117397e-05
0.00072879538
0.0011109176
0.0012915488
0.0011109208
0.00072880356
0.0032588699
0.003488659
0.0034400612
0.0034885874
0.0032588102
0.0021909103
0.0008737395
0.00055839437
0.00087369278
0.0021907707
0.00022694284
2.890388e-05
1.2708841e-05
2.8901185e-05
0.00022691897
3.7004667e-05
5.4701381e-05
6.3903401e-05
5.4702521e-05
3.7005961e-05
0.00062007657
0.00095354293
0.0011122915
0.00095355184
0.00062008937
0.003021153
0.0033531731
0.0033560422
0.0033531102
0.0030211151
0.0023968641
0.0010456533
0.00069207831
0.0010455844
0.002396693
0.0002944554
4.0817901e-05
1.8276279e-05
4.0812963e-05
0.0002944162
3.0515257e-05
4.5198568e-05
5.277372e-05
4.5199805e-05
3.0516675e-05
0.00052895499
0.00082146066
0.00096059928
0.00082147378
0.00052897199
0.0027883831
0.0032040429
0.0032488485
0.003203996
0.0027883718
0.0025752122
0.0012228959
0.00083677507
0.0012228057
0.0025750222
0.00037279058
5.630309e-05
2.57577e-05
5.629492e-05
0.00037273226
2.5282644e-05
3.7597272e-05
4.3877294e-05
3.7598479e-05
2.5284037e-05
0.00045228167
0.00071026199
0.00083246246
0.00071027756
0.0004523007
0.0025629173
0.0030469067
0.0031268947
0.0030468824
0.0025629346
0.0027226445
0.001400851
0.00098938836
0.0014007507
0.0027224681
0.00046143785
7.5902585e-05
3.5561039e-05
7.589114e-05
0.00046136474
2.1023421e-05
3.1470263e-05
3.6733497e-05
3.1471358e-05
2.102471e-05
0.00038731391
0.00061633273
0.00072435796
0.00061634899
0.00038733346
0.0023468283
0.0028854106
0.0029956614
0.0028854073
0.0023468702
0.0028381335
0.0015756215
0.0011469246
0.0015755205
0.0028379921
0.00055985404
0.00010020658
4.8155194e-05
0.00010019172
0.00055976964
1.7539294e-05
2.6473357e-05
3.0930707e-05
2.6474294e-05
1.7540449e-05
0.00033214672
0.00053621474
0.00063230721
0.00053623043
0.00033216617
0.0021420054
0.0027219046
0.0028583857
0.0027219219
0.002142075
0.0029210546
0.001742711
0.0013056992
0.0017426239
0.0029209683
0.00066669694
0.0001296307
6.3955952e-05
0.00012961375
0.00066661304
1.4675569e-05
2.2358677e-05
2.6174445e-05
2.235938e-05
1.4676541e-05
0.0002852076
0.00046739938
0.00055345449
0.00046741229
0.00028522543
0.0019497174
0.0025583163
0.0027177855
0.0025583458
0.0019498011
0.0029729627
0.0018991265
0.0014625675
0.0018990626
0.0029729377
0.00078095617
0.00016467028
8.3450608e-05
0.00016465263
0.00078088228
1.2309985e-05
1.895124e-05
2.2234717e-05
1.8951784e-05
1.2310725e-05
0.00024514011
0.00040810292
0.000485313
0.00040811419
0.00024515482
0.0017698208
0.0023965764
0.0025745095
0.0023966232
0.001769906
0.0029950085
0.0020410748
0.001613943
0.0020410425
0.0029950434
0.00090064276
0.00020549562
0.00010697765
0.00020548012
0.00090059299
1.0346699e-05
1.6112549e-05
1.8963685e-05
1.6112912e-05
1.034725e-05
0.00021085152
0.00035682963
0.00042649307
0.00035683821
0.00021086329
0.001602519
0.0022383633
0.0024321075
0.0022384139
0.0016026012
0.0029904966
0.0021667318
0.0017570226
0.0021667307
0.0029905859
0.0010246205
0.00025245295
0.00013499586
0.00025244196
0.0010246021
8.7148343e-06
1.3730223e-05
1.6221111e-05
1.3730446e-05
8.7151779e-06
0.00018151522
0.000312224
0.00037526614
0.00031223016
0.00018152329
0.0014479002
0.002083654
0.002289993
0.0020837049
0.0014479694
0.002961762
0.0022736709
0.0018883987
0.0022737022
0.0029618901
0.0011503218
0.00030537685
0.0001676635
0.00030537337
0.0011503435
7.354466e-06
1.1721738e-05
1.3905173e-05
1.1721857e-05
7.3546217e-06
0.00015639216
0.00027332797
0.00033042195
0.00027333184
0.00015639652
0.0013058733
0.0019337661
0.0021492147
0.0019338068
0.0013059224
0.0029129537
0.0023618889
0.0020068926
0.0023619423
0.0029130946
0.0012766714
0.00036444295
0.00020539017
0.00036444899
0.0012767324
6.2173729e-06
1.0019731e-05
1.1939174e-05
1.0019785e-05
6.2173942e-06
0.00013484577
0.000239277
0.00029100324
0.00023927931
0.00013484729
0.0011757349
0.0017888258
0.0020101492
0.0017888579
0.0011757656
0.002846029
0.0024297747
0.0021097969
0.0024298458
0.0028461666
0.0014010064
0.00042915193
0.00024807444
0.00042916805
0.0014011014
5.2653923e-06
8.5778451e-06
1.0264556e-05
8.577796e-06
5.2653095e-06
0.0001163691
0.0002095486
0.0002563141
0.00020954839
0.00011636819
0.0010571987
0.0016505813
0.0018743421
0.0016505982
0.0010572093
0.0027652055
0.0024789373
0.0021973157
0.0024790133
0.0027653204
0.0015225562
0.00049947586
0.00029607539
0.00049950298
0.0015226764
4.4659096e-06
7.3511394e-06
8.8339556e-06
7.3510419e-06
4.4657791e-06
0.00010048906
0.00018350903
0.00022573019
0.00018350747
0.00010048687
0.00094926451
0.0015188612
0.0017421737
0.0015188673
0.00094926128
0.0026719292
0.0025086936
0.0022673541
0.002508765
0.0026720152
0.0016385141
0.00057448251
0.00034894031
0.00057451702
0.0016386447
3.7941368e-06
6.3074493e-06
7.6105061e-06
6.3073189e-06
3.7939711e-06
8.6855208e-05
0.00016075084
0.00019880079
0.00016074819
8.6851975e-05
0.00085158161
0.0013947875
0.0016151861
0.0013947819
0.00085156528
0.0025702356
0.0025218608
0.0023216558
0.0025219201
0.0025702843
0.0017486542
0.00065418531
0.00040697535
0.00065422728
0.001748786
3.2274638e-06
5.4166344e-06
6.5611966e-06
5.4165148e-06
3.2273038e-06
7.5109886e-05
0.00014080926
0.00017503718
0.00014080661
7.5106538e-05
0.00076300818
0.0012778924
0.0014932794
0.0012778823
0.00076298609
0.0024608332
0.0025179633
0.0023587697
0.0025180054
0.0024608488
0.0018501824
0.00073725881
0.00046941998
0.00073730031
0.0018502969
2.749769e-06
4.6576379e-06
5.6624748e-06
4.6575167e-06
2.7496095e-06
6.5013637e-05
0.00012340387
0.00015414509
0.00012340096
6.5010118e-05
0.00068323635
0.0011690773
0.0013778542
0.0011690611
0.00068320882
0.0023474742
0.0025005429
0.0023814567
0.0025005679
0.0023474581
0.001943501
0.00082363889
0.0005365343
0.00082368234
0.0019435991
2.3451445e-06
4.0082611e-06
4.8898804e-06
4.0081573e-06
2.3450209e-06
5.6295135e-05
0.00010815284
0.00013571504
0.00010815022
5.6292294e-05
0.00061111018
0.0010674818
0.0012683317
0.0010674639
0.00061108521
0.0022301791
0.0024690619
0.0023885393
0.0024690687
0.0022301431
0.0020258482
0.0009116671
0.0006072576
0.00091170105
0.0020259079
2.0030203e-06
3.4540252e-06
4.2278559e-06
3.453929e-06
2.0029124e-06
4.8790958e-05
9.4850022e-05
0.0001195478
9.4847485e-05
4.8788395e-05
0.00054638822
0.00097374416
0.0011659282
0.00097372427
0.00054636363
0.0021123723
0.0024274179
0.0023834764
0.0024274112
0.0021123223
0.0020984007
0.0010013562
0.00068166459
0.0010013877
0.002098441
1.7118914e-06
2.9781939e-06
3.6571287e-06
2.9781273e-06
1.7118187e-06
4.2290192e-05
8.3176768e-05
0.00010527785
8.3174928e-05
4.2288403e-05
0.00048792951
0.00088671409
0.0010695671
0.00088669751
0.00048791058
0.0019933533
0.0023747517
0.0023651236
0.0023747333
0.0019933
0.0021585779
0.0010909002
0.00075861314
0.0010909162
0.0021585777
1.4650836e-06
2.5718067e-06
3.167829e-06
2.5717499e-06
1.4650219e-06
3.668821e-05
7.3008195e-05
9.2781792e-05
7.3006589e-05
3.6686666e-05
0.00043562215
0.00080703651
0.00098034681
0.00080702094
0.00043560505
0.0018763253
0.0023150929
0.0023372856
0.0023150707
0.0018762716
0.0022081446
0.0011801907
0.00083795967
0.0011802056
0.0022081375
1.254102e-06
2.2217437e-06
2.7447618e-06
2.2217096e-06
1.2540666e-06
3.181892e-05
6.4069945e-05
8.1740223e-05
6.4068937e-05
3.1818e-05
0.00038838238
0.00073333394
0.00089687291
0.00073332272
0.00038837107
0.0017599891
0.0022471383
0.0022985814
0.0022471119
0.0017599423
0.0022447409
0.0012674987
0.00091859748
0.0012674963
0.0022447022
1.0749578e-06
1.9225003e-06
2.3819753e-06
1.922471e-06
1.0749266e-06
2.7621529e-05
5.6289771e-05
7.2087419e-05
5.6288905e-05
2.7620723e-05
0.0003462436
0.00066625136
0.00082019378
0.0006662416
0.00034623375
0.0016474384
0.0021749485
0.002252972
0.0021749254
0.0016473979
0.0022706161
0.0013525607
0.0010000058
0.0013525619
0.0022705873
9.2110617e-07
1.6635182e-06
2.0670214e-06
1.6635041e-06
9.210918e-07
2.3959968e-05
4.9427902e-05
6.353649e-05
4.9427462e-05
2.3959583e-05
0.00030816212
0.00060426159
0.00074865401
0.00060425569
0.00030815673
0.0015368149
0.0020966971
0.0021987084
0.0020966748
0.0015367845
0.0022836527
0.0014339941
0.0010813896
0.0014339799
0.0022836042
7.9039222e-07
1.4419893e-06
1.796917e-06
1.4419755e-06
7.9037664e-07
2.0805256e-05
4.3459663e-05
5.6072169e-05
4.3459252e-05
2.0804858e-05
0.00027430726
0.00054811501
0.00068335569
0.00054811001
0.00027430225
0.0014311974
0.0020165087
0.0021398517
0.0020164932
0.0014311739
0.0022865094
0.0015112332
0.0011616902
0.0015112292
0.0022864838
6.7762373e-07
1.2492807e-06
1.5612982e-06
1.2492756e-06
6.7761775e-07
1.804325e-05
3.817462e-05
4.9436284e-05
3.8174467e-05
1.8043098e-05
0.00024367687
0.00049620492
0.00062247294
0.00049620259
0.00024367471
0.001328232
0.0019320088
0.0020741948
0.0019319959
0.0013282169
0.002277211
0.0015834398
0.0012406824
0.0015834242
0.002277174
5.8185209e-07
1.0844387e-06
1.3592887e-06
1.0844311e-06
5.818423e-07
1.5666849e-05
3.3583379e-05
4.3653046e-05
3.3583171e-05
1.5666612e-05
0.00021655059
0.00044940319
0.00056720847
0.00044940091
0.00021654789
0.0012310535
0.0018474722
0.0020059535
0.0018474659
0.0012310424
0.0022588116
0.0016496897
0.0013166244
0.0016496897
0.0022588027
4.9884849e-07
9.4023575e-07
1.1820892e-06
9.4023276e-07
4.9884388e-07
1.3578338e-05
2.9498612e-05
3.8488186e-05
2.9498539e-05
1.3578233e-05
0.00019196738
0.00040605751
0.00051562068
0.00040605669
0.00019196621
0.0011368678
0.0017599553
0.0019323993
0.0017599506
0.0011368614
0.0022293189
0.0017098214
0.0013900912
0.001709813
0.0022293015
4.2845514e-07
8.1698534e-07
1.0302955e-06
8.1697907e-07
4.2844636e-07
1.1785523e-05
2.5956721e-05
3.3995917e-05
2.5956561e-05
1.1785315e-05
0.00017029272
0.00036716194
0.00046903616
0.00036716059
0.00017029057
0.0010489119
0.001673981
0.0018580094
0.001673981
0.0010489063
0.0021922204
0.0017625501
0.0014585694
0.0017625594
0.002192229
3.6716017e-07
7.0852709e-07
8.9632639e-07
7.0852307e-07
3.6715425e-07
1.0203606e-05
2.2789374e-05
2.9962746e-05
2.2789276e-05
1.0203467e-05
0.00015060853
0.00033104557
0.00042544631
0.0003310448
0.00015060709
0.00096401075
0.0015860187
0.0017794763
0.0015860183
0.00096400629
0.0021453019
0.0018084183
0.0015235872
0.0018084207
0.0021453008
3.1530851e-07
6.1600791e-07
7.8177641e-07
6.1600101e-07
3.1529931e-07
8.8501468e-06
2.0050912e-05
2.646478e-05
2.0050729e-05
8.8499217e-06
0.00013334257
0.00029881045
0.00038630282
0.00029880891
0.00013334015
0.00088552686
0.0015009261
0.0017016552
0.0015009279
0.00088552098
0.0020925649
0.0018458539
0.0015818466
0.0018458726
0.0020925831
2.6993794e-07
5.3409211e-07
6.8002121e-07
5.3408642e-07
2.6993057e-07
7.6507989e-06
1.7588706e-05
2.3306224e-05
1.7588551e-05
7.6506148e-06
0.00011762117
0.00026878333
0.00034955714
0.00026878188
0.00011761907
0.00080996381
0.0014145646
0.0016206004
0.0014145643
0.00080995695
0.0020313492
0.0018760166
0.0016358782
0.0018760288
0.0020313555
2.3169714e-07
4.6444192e-07
5.9328617e-07
4.6443433e-07
2.316878e-07
6.629114e-06
1.5468638e-05
2.0577783e-05
1.5468423e-05
6.6288746e-06
0.00010391319
0.00024215062
0.00031676916
0.0002421485
0.00010391037
0.00074081477
0.0013321879
0.001541651
0.0013321879
0.00074080578
0.0019662848
0.0018972076
0.0016816876
0.0018972317
0.0019663024
1.9806297e-07
4.023756e-07
5.1571341e-07
4.0236888e-07
1.9805504e-07
5.7195757e-06
1.3551324e-05
1.8098893e-05
1.3551126e-05
5.719367e-06
9.1392136e-05
0.00021724783
0.00028586951
0.00021724563
9.1389503e-05
0.00067432527
0.0012490284
0.0014601587
0.0012490255
0.00067431462
0.0018940402
0.0019109959
0.0017227255
0.0019110134
0.0018940448
1.6985152e-07
3.4984712e-07
4.4989288e-07
3.4983951e-07
1.6984275e-07
4.9490047e-06
1.1909356e-05
1.596908e-05
1.1909127e-05
4.9487707e-06
8.0549657e-05
0.00019532155
0.00025850313
0.00019531893
8.0546636e-05
0.00061410691
0.0011707786
0.0013820313
0.001170775
0.00061409452
0.0018200019
0.001915803
0.0017545009
0.0019158273
0.0018200113
1.4490131e-07
3.0271789e-07
3.906031e-07
3.0271107e-07
1.4489376e-07
4.2595649e-06
1.0415107e-05
1.4021341e-05
1.0414894e-05
4.2593582e-06
7.0609257e-05
0.00017472889
0.00023259654
0.00017472622
7.0606427e-05
0.00055621369
0.0010920396
0.0013018611
0.0010920334
0.00055619994
0.0017399624
0.0019132918
0.0017811655
0.0019133096
0.0017399597
1.2410282e-07
2.630786e-07
3.4060752e-07
2.6307164e-07
1.2409523e-07
3.6793922e-06
9.1442925e-06
1.2359505e-05
9.144073e-06
3.679182e-06
6.2069955e-05
0.00015675337
0.00020985356
0.00015675054
6.2067025e-05
0.00050434991
0.0010189608
0.0012261811
0.0010189537
0.00050433533
0.0016601834
0.0019023189
0.0017980351
0.0019023387
0.0016601814
1.0559856e-07
2.2724948e-07
2.9522501e-07
2.2724329e-07
1.0559202e-07
3.1574339e-06
7.9798151e-06
1.0828841e-05
7.9796139e-06
3.157249e-06
5.4207221e-05
0.00013978313
0.00018821045
0.00013978034
5.4204514e-05
0.00045444238
0.00094551943
0.0011487827
0.0009455104
0.00045442717
0.0015754129
0.0018842476
0.001809618
0.0018842617
0.0015754013
9.0291036e-08
1.973512e-07
2.5726046e-07
1.9734531e-07
9.0284877e-08
2.7217662e-06
6.997881e-06
9.5341211e-06
6.9976877e-06
2.7215905e-06
4.7514834e-05
0.0001251174
0.0001694048
0.00012511466
4.751222e-05
0.00041025269
0.00087831824
0.0010768535
0.00087830874
0.00041023757
0.0014928793
0.0018587272
0.0018114236
0.00185874
0.0014928666
7.6582624e-08
1.70103e-07
2.2250564e-07
1.7009783e-07
7.6577369e-08
2.3274057e-06
6.0910856e-06
8.3320514e-06
6.0909116e-06
2.3272529e-06
4.1321604e-05
0.00011118532
0.00015139712
0.00011118271
4.1319234e-05
0.00036764395
0.00081074184
0.0010033708
0.00081073126
0.00036762896
0.0014061695
0.0018263843
0.0018078743
0.0018263925
0.0014061502
6.5347375e-08
1.4758483e-07
1.9371807e-07
1.4758015e-07
6.5342655e-08
2.0014316e-06
5.3342693e-06
7.3259242e-06
5.3341105e-06
2.0012933e-06
3.6106189e-05
9.92838e-05
0.00013593596
9.9281363e-05
3.610401e-05
0.00033039436
0.00074982466
0.00093617757
0.00074981409
0.00033038012
0.001323531
0.0017880351
0.0017951153
0.0017880403
0.0013235106
5.5212361e-08
1.2686863e-07
1.6710835e-07
1.2686459e-07
5.5208378e-08
1.7043279e-06
4.6290614e-06
6.3831531e-06
4.6289213e-06
1.7042092e-06
3.1251359e-05
8.789206e-05
0.00012101838
8.7889813e-05
3.1249424e-05
0.00029436367
0.00068840833
0.00086744743
0.0006883975
0.00029435012
0.00123733
0.0017431223
0.0017769763
0.0017431242
0.0012373061
4.699792e-08
1.0994824e-07
1.4533063e-07
1.0994471e-07
4.6994469e-08
1.4615621e-06
4.0476621e-06
5.6039257e-06
4.0475386e-06
1.4614585e-06
2.721315e-05
7.8289678e-05
0.00010838571
7.828765e-05
2.7211434e-05
0.00026330398
0.00063392366
0.00080566802
0.00063391323
0.00026329155
0.001156845
0.0016940045
0.001750723
0.0016940033
0.0011568207
3.952695e-08
9.4211431e-08
1.2497389e-07
9.4208432e-08
3.9524073e-08
1.2385627e-06
3.5001922e-06
4.8658604e-06
3.5000855e-06
1.2384751e-06
2.3428234e-05
6.9014166e-05
9.6084317e-05
6.9012348e-05
2.3426739e-05
0.00023312777
0.00057873499
0.00074224679
0.0005787249
0.00023311634
0.0010732153
0.0016385014
0.0017190356
0.0016384981
0.0010731899
3.355168e-08
8.153772e-08
1.0855303e-07
8.1535167e-08
3.3549255e-08
1.0588147e-06
3.0553542e-06
4.2648978e-06
3.0552624e-06
1.0587403e-06
2.0324662e-05
6.131538e-05
8.5832125e-05
6.1313779e-05
2.0323372e-05
0.00020751973
0.00053062314
0.00068628446
0.00053061369
0.00020750951
0.00099672655
0.0015808851
0.0016808218
0.0015808793
0.0009967015
2.8066154e-08
6.9599213e-08
9.3000074e-08
6.9597083e-08
2.8064158e-08
8.922133e-07
2.6312533e-06
3.6883574e-06
2.6311755e-06
8.9215126e-07
1.7392125e-05
5.3795703e-05
7.5735328e-05
5.3794303e-05
1.7391022e-05
0.00018249396
0.00048154884
0.00062847576
0.00048154007
0.00018248483
0.00091732712
0.0015169252
0.0016370124
0.0015169183
0.00091730272
2.3747805e-08
6.0145406e-08
8.0670135e-08
6.0143623e-08
2.3746157e-08
7.6007344e-07
2.2925617e-06
3.2271992e-06
2.2924959e-06
7.6002185e-07
1.5027267e-05
4.7665536e-05
6.7475328e-05
4.7664324e-05
1.5026334e-05
0.00016163116
0.00043959176
0.00057849574
0.00043958372
0.00016162315
0.00084626222
0.0014531794
0.0015887267
0.0014531709
0.00084623886
1.9740011e-08
5.1104106e-08
6.8806666e-08
5.1102643e-08
1.9738671e-08
6.3630445e-07
1.9648439e-06
2.7779288e-06
1.9647892e-06
6.3626202e-07
1.2771008e-05
4.1596412e-05
5.9226426e-05
4.1595375e-05
1.2770223e-05
0.0001410862
0.00039638088
0.0005263875
0.00039637364
0.00014107921
0.00077234866
0.0013829417
0.0015344943
0.0013829327
0.00077232683
1.6644033e-08
4.4089045e-08
5.9596805e-08
4.4087832e-08
1.6642945e-08
5.3999748e-07
1.7084973e-06
2.426162e-06
1.7084515e-06
5.3996273e-07
1.0986785e-05
3.6752817e-05
5.2624368e-05
3.6751928e-05
1.0986131e-05
0.00012430571
0.00036024973
0.00048236579
0.00036024318
0.00012429968
0.00070773451
0.0013154524
0.0014782887
0.0013154427
0.00070771411
1.3733764e-08
3.7256349e-08
5.0564504e-08
3.7255371e-08
1.3732891e-08
4.4866781e-07
1.4559657e-06
2.0769745e-06
1.4559283e-06
4.4863965e-07
9.2646789e-06
3.1876816e-05
4.5915946e-05
3.1876069e-05
9.2641381e-06
0.00010761966
0.00032255398
0.00043587282
0.00032254819
0.00010761449
0.00064019989
0.0012410667
0.0014154973
0.0012410569
0.00064018135
1.1537047e-08
3.2085994e-08
4.3730589e-08
3.2085185e-08
1.1536345e-08
3.7924243e-07
1.2633732e-06
1.810601e-06
1.2633419e-06
3.7921957e-07
7.9347508e-06
2.8084077e-05
4.068673e-05
2.8083439e-05
7.934304e-06
9.4319269e-05
0.00029185213
0.00039764732
0.00029184694
9.4314849e-05
0.00058273012
0.0011721752
0.0013537181
0.0011721653
0.00058271305
9.4382117e-09
2.6934651e-08
3.6867282e-08
2.693401e-08
9.4376564e-09
3.1235015e-07
1.0693606e-06
1.53991e-06
1.0693355e-06
3.1233191e-07
6.6314873e-06
2.4184693e-05
3.5255074e-05
2.4184165e-05
6.6311236e-06
8.0912455e-05
0.00025925532
0.00035654876
0.0002592508
8.0908735e-05
0.00052206286
0.0010956371
0.0012842862
0.0010956271
0.00052204761
7.8989462e-09
2.3158084e-08
3.1840386e-08
2.3157553e-08
7.8985016e-09
2.6295309e-07
9.2604921e-07
1.3400762e-06
9.2602816e-07
2.6293836e-07
5.6540508e-06
2.1247541e-05
3.1158412e-05
2.124709e-05
5.6537518e-06
7.0540732e-05
0.00023355615
0.00032387087
0.00023355212
7.0537569e-05
0.00047208494
0.0010276299
0.0012194422
0.0010276202
0.00047207107
6.3958065e-09
1.9282975e-08
2.6633867e-08
1.9282562e-08
6.3954622e-09
2.1432524e-07
7.7740805e-07
1.1307055e-06
7.7739144e-07
2.1431371e-07
4.6760075e-06
1.8142324e-05
2.6777358e-05
1.8141956e-05
4.6757688e-06
5.9878359e-05
0.00020558981
0.00028783182
0.00020558633
5.9875742e-05
0.00041840811
0.00095068902
0.0011452049
0.00095067934
0.00041839587
5.3347634e-09
1.6559239e-08
2.2981181e-08
1.6558897e-08
5.3344898e-09
1.7976962e-07
6.7217463e-07
9.8270585e-07
6.7216073e-07
1.7976038e-07
3.9703983e-06
1.5901004e-05
2.3613892e-05
1.5900691e-05
3.9702034e-06
5.1950419e-05
0.00018447442
0.00026041864
0.00018447134
5.1948214e-05
0.00037604747
0.00088582161
0.0010799973
0.0008858123
0.0003760365
4.2645177e-09
1.3646739e-08
1.9032493e-08
1.364648e-08
4.2643127e-09
1.4464118e-07
5.5844773e-07
8.2088375e-07
5.58437e-07
1.4463416e-07
3.2415345e-06
1.3434643e-05
2.0087633e-05
1.3434392e-05
3.2413831e-06
4.3541022e-05
0.00016061547
0.00022899062
0.00016061284
4.353924e-05
0.00032911837
0.00080979609
0.0010024829
0.00080978702
0.00032910885
3.5508605e-09
1.1721591e-08
1.6429592e-08
1.172138e-08
3.5507005e-09
1.2107023e-07
4.8277336e-07
7.1346693e-07
4.8276449e-07
1.210647e-07
2.7453731e-06
1.176238e-05
1.7697805e-05
1.1762169e-05
2.7452515e-06
3.765099e-05
0.00014372413
0.0002066029
0.00014372184
3.7649511e-05
0.00029442124
0.00075044667
0.00093997548
0.00075043806
0.00029441286
2.7887379e-09
9.523281e-09
1.3420778e-08
9.5231293e-09
2.7886251e-09
9.5696917e-08
3.9541506e-07
5.8784579e-07
3.9540849e-07
9.5692941e-08
2.20246e-06
9.7973581e-06
1.4849742e-05
9.797194e-06
2.2023698e-06
3.1025663e-05
0.00012334606
0.00017916192
0.00012334415
3.1024515e-05
0.00025351808
0.00067583544
0.00085993075
0.0006758274
0.00025351105
2.3315429e-09
8.2172102e-09
1.1638012e-08
8.2170912e-09
2.3314583e-09
8.0401834e-08
3.4324654e-07
5.1300578e-07
3.4324126e-07
8.0398801e-08
1.8711017e-06
8.6042232e-06
1.3121284e-05
8.6040878e-06
1.8710312e-06
2.6881321e-05
0.0001105004
0.00016177496
0.00011049876
2.6880388e-05
0.00022677762
0.00062504585
0.00080415203
0.00062503836
0.00022677155
1.7743418e-09
6.5172819e-09
9.2902103e-09
6.517206e-09
1.7742901e-09
6.1578073e-08
2.744833e-07
4.1312303e-07
2.7447973e-07
6.1576154e-08
1.4556292e-06
6.9998267e-06
1.0765047e-05
6.9997286e-06
1.4555822e-06
2.1518777e-05
9.2671174e-05
0.00013724362
9.266989e-05
2.1518111e-05
0.00019022603
0.00055047831
0.00072029155
0.00055047176
0.00019022126
1.5286783e-09
5.7487839e-09
8.225361e-09
5.7487277e-09
1.5286413e-09
5.3294049e-08
2.4342128e-07
3.6783946e-07
2.434185e-07
5.3292625e-08
1.2716249e-06
6.2685751e-06
9.6856922e-06
6.2684941e-06
1.2715884e-06
1.9098369e-05
8.4345808e-05
0.00012568781
8.4344692e-05
1.9097825e-05
0.00017308689
0.00051386453
0.00067834045
0.00051385849
0.00017308273
1.0443174e-09
4.1795877e-09
6.0370474e-09
4.1795709e-09
1.044307e-09
3.6675064e-08
1.7875278e-07
2.728851e-07
1.7875161e-07
3.6674568e-08
8.931799e-07
4.7046248e-06
7.3567724e-06
4.7045806e-06
8.9316409e-07
1.3944024e-05
6.5810729e-05
9.9630675e-05
6.5809991e-05
1.3943734e-05
0.00013461584
0.00042675553
0.00057613528
0.00042675079
0.00013461311
0.0030750631
0.00083494285
0.00049851302
0.0008349448
0.0030750687
4.1397283e-07
1.6904913e-07
1.2922792e-07
1.6904926e-07
4.1397311e-07
3.7544285e-08
3.074094e-08
2.9307812e-08
3.0740927e-08
3.7544244e-08
2.5867052e-08
2.5080633e-08
2.4940792e-08
2.5080632e-08
2.5867048e-08
2.4705584e-08
2.4607631e-08
2.4596828e-08
2.4607631e-08
2.4705584e-08
0.036386649
0.035671573
0.034600469
0.035671547
0.036386623
0.0003685712
5.4453406e-05
2.7067313e-05
5.4452003e-05
0.00036856104
7.2332086e-07
1.6791734e-07
1.1518362e-07
1.6790116e-07
7.2323023e-07
4.9432572e-08
3.3102858e-08
3.0679177e-08
3.3102415e-08
4.9431141e-08
2.7693983e-08
2.5478931e-08
2.5213916e-08
2.547889e-08
2.7693921e-08
0.010715461
0.012168958
0.01311846
0.012168981
0.010715492
0.0037475027
0.0010179859
0.00056739477
0.0010179917
0.003747521
1.2815465e-05
1.7181554e-06
9.1462041e-07
1.7181905e-06
1.2815595e-05
1.7218641e-07
6.156843e-08
4.9621233e-08
6.1571888e-08
1.721939e-07
3.6797171e-08
2.7936185e-08
2.6962399e-08
2.793636e-08
3.6802326e-08
0.0051550484
0.0058997394
0.0060385739
0.0058997336
0.0051550267
0.0080576616
0.0041006177
0.0028256156
0.0041006717
0.0080577639
0.00010739974
1.3129042e-05
6.2388931e-06
1.3129556e-05
0.00010740548
7.301039e-07
1.4755407e-07
1.0095532e-07
1.4755643e-07
7.3013852e-07
6.0645391e-08
3.3559804e-08
3.0833171e-08
3.3559105e-08
6.0646579e-08
0.0028002006
0.0037468089
0.0040351544
0.003746796
0.002800182
0.0084723923
0.0067872777
0.0056690561
0.006787281
0.0084723704
0.0004219767
6.4325282e-05
3.0992774e-05
6.4326084e-05
0.00042198179
2.9785633e-06
4.0688166e-07
2.3930334e-07
4.0687607e-07
2.9785232e-06
1.1716808e-07
4.4948078e-08
3.8288253e-08
4.4946642e-08
1.1716132e-07
0.0016070345
0.0022982114
0.0026083917
0.0022982027
0.0016070244
0.0071367206
0.0071194199
0.0067909833
0.0071194119
0.0071366959
0.0010115075
0.00020315074
0.00010470933
0.00020315333
0.0010115181
1.013848e-05
1.1253697e-06
5.9102287e-07
1.125378e-06
1.0138589e-05