/*--------------------------------*- C++ -*----------------------------------*\
| =========                 |                                                 |
| \\      /  F ield         | OpenFOAM: The Open Source CFD Toolbox           |
|  \\    /   O peration     | Version:  2.3.x                                 |
|   \\  /    A nd           | Web:      www.OpenFOAM.org                      |
|    \\/     M anipulation  |                                                 |
\*---------------------------------------------------------------------------*/
FoamFile
{
    version     2.0;
    format      ascii;
    class       surfaceScalarField;
    location    "0.021";
    object      phi;
}
// * * * * * * * * * * * * * * * * * * * * * * * * * * * * * * * * * * * * * //

dimensions      [1 0 -1 0 0 0 0];

internalField   nonuniform List<scalar> 
29075
(
2.9195259e-09
1.36454e-07
1.3369095e-07
-5.6169849e-15
1.3987778e-09
1.387081e-07
1.7473005e-07
-1.398753e-09
1.3782276e-07
1.9100138e-07
-2.9195002e-09
1.3870806e-07
1.747301e-07
1.3645395e-07
1.3369101e-07
7.8166511e-15
5.5467566e-09
1.341747e-07
2.3345654e-07
1.4769162e-14
2.9459693e-09
1.2767492e-07
2.8824144e-07
-2.9459755e-09
1.2347378e-07
3.0846322e-07
-5.5467532e-09
1.2767485e-07
2.8824146e-07
1.3417457e-07
2.3345661e-07
1.9599419e-14
5.4248973e-09
9.2464502e-08
2.3666962e-07
4.855405e-14
2.9072797e-09
8.3680324e-08
2.8381076e-07
-2.9073306e-09
7.9871474e-08
2.9983598e-07
-5.42493e-09
8.3680504e-08
2.8381049e-07
9.2464685e-08
2.3666931e-07
2.3069198e-14
3.8846385e-09
5.4938634e-08
1.9768641e-07
4.4736341e-14
2.2107166e-09
4.7483468e-08
2.3786091e-07
-2.2107311e-09
4.5593407e-08
2.5131586e-07
-3.8846405e-09
4.7483545e-08
2.37861e-07
5.493873e-08
1.9768651e-07
2.4099061e-14
3.0670825e-09
1.4977855e-07
3.9615474e-14
2.9799242e-08
2.0168057e-09
1.8754366e-07
2.3672055e-08
-2.0167896e-09
2.0035891e-07
2.4081983e-08
-3.0670534e-09
1.8754372e-07
2.3672064e-08
1.4977866e-07
2.7072505e-14
2.9799272e-08
-5.7673391e-10
5.1132267e-08
8.313546e-08
-3.9674631e-14
-3.5371374e-10
6.199379e-08
1.1251324e-07
3.5382394e-10
6.5280827e-08
1.2501301e-07
5.7681258e-10
6.1993902e-08
1.1251321e-07
5.1132417e-08
8.3135402e-08
6.9941962e-15
1.5561414e-09
9.7235419e-08
1.8579729e-07
-5.0819894e-14
1.2552901e-09
1.037161e-07
2.4681998e-07
-1.2551849e-09
1.0541679e-07
2.7083773e-07
-1.5560474e-09
1.0371621e-07
2.4682001e-07
9.7235672e-08
1.8579729e-07
1.9557489e-14
3.3588964e-09
9.4751496e-08
2.357947e-07
-5.248478e-14
2.3382275e-09
9.1098606e-08
2.9744892e-07
-2.338067e-09
9.0535884e-08
3.1939319e-07
-3.3587591e-09
9.1098528e-08
2.9744887e-07
9.4751554e-08
2.3579464e-07
3.1008627e-14
4.0622426e-09
6.8304328e-08
2.2007141e-07
-8.0066783e-14
2.6877097e-09
6.0980829e-08
2.6935322e-07
-2.6874855e-09
6.0958335e-08
2.862686e-07
-4.062032e-09
6.0980667e-08
2.6935341e-07
6.8304345e-08
2.2007166e-07
3.3027769e-14
3.7550907e-09
1.7188708e-07
-1.4788035e-13
4.2440863e-08
2.6687665e-09
2.160106e-07
3.3600219e-08
-2.6685011e-09
2.3123267e-07
3.5421846e-08
-3.7547856e-09
2.1601054e-07
3.3600129e-08
1.7188738e-07
3.0918196e-14
4.2440813e-08
-6.3476817e-10
1.8406178e-08
6.5364099e-08
-4.8786072e-14
-4.5956905e-10
2.4613184e-08
8.772486e-08
4.597068e-10
2.6811932e-08
9.7281805e-08
6.3486309e-10
2.4613339e-08
8.7724711e-08
1.8406385e-08
6.5363877e-08
3.1489051e-15
-1.0566738e-09
3.9906006e-08
1.6535425e-07
-1.1266168e-13
-2.7273334e-10
5.0693285e-08
2.1995594e-07
2.7314105e-10
5.4104925e-08
2.4299886e-07
1.0569753e-09
5.0693553e-08
2.1995596e-07
3.9906492e-08
1.6535415e-07
1.2967225e-14
5.5425562e-10
5.1788022e-08
2.2335862e-07
-1.8849187e-13
6.290335e-10
5.6452652e-08
2.9161478e-07
-6.2856653e-10
5.7932141e-08
3.1682357e-07
-5.5396189e-10
5.645249e-08
2.9161532e-07
5.1787988e-08
2.2335915e-07
2.4133618e-14
1.8619384e-09
4.3280939e-08
2.2671677e-07
-2.1165864e-13
1.3117967e-09
4.1313048e-08
2.8504297e-07
-1.3113117e-09
4.2339324e-08
3.0448453e-07
-1.8615731e-09
4.1312838e-08
2.8504332e-07
4.328074e-08
2.267173e-07
3.3123013e-14
2.1697904e-09
1.8446269e-07
-2.0867296e-13
2.8535749e-08
1.5165378e-09
2.3350285e-07
2.4474054e-08
-1.5160973e-09
2.5038007e-07
2.6224555e-08
-2.1694573e-09
2.3350275e-07
2.4473989e-08
1.8446306e-07
4.8482918e-14
2.8535557e-08
-4.0256172e-10
9.6928974e-09
5.607374e-08
2.3895346e-14
-2.1494802e-10
1.3289312e-08
7.4247934e-08
2.1490311e-10
1.5031783e-08
8.1820172e-08
4.0253111e-10
1.328919e-08
7.4247893e-08
9.69277e-09
5.607364e-08
-8.1651075e-16
-5.9799828e-10
2.463662e-08
1.5100859e-07
-6.1241339e-14
-4.0291165e-10
3.1387254e-08
2.0166291e-07
4.0304872e-10
3.4343486e-08
2.228812e-07
5.9812383e-10
3.1387101e-08
2.0166298e-07
2.4636443e-08
1.5100859e-07
1.0957722e-14
4.0441136e-10
3.4427125e-08
2.1316381e-07
-1.0966639e-13
2.116763e-10
3.9651642e-08
2.8354313e-07
-2.1143203e-10
4.1383008e-08
3.1020716e-07
-4.0422818e-10
3.9651529e-08
2.8354369e-07
3.4426909e-08
2.1316444e-07
2.5237249e-14
1.552631e-09
3.1595291e-08
2.2799607e-07
-9.462203e-14
9.4407144e-10
3.1106376e-08
2.9419679e-07
-9.4381801e-10
3.1457822e-08
3.1629761e-07
-1.5524567e-09
3.1106371e-08
2.9419712e-07
3.1595048e-08
2.2799666e-07
4.1777901e-14
1.9538228e-09
1.9400551e-07
-3.9369939e-14
2.0098689e-08
1.0160236e-09
2.4764217e-07
1.790485e-08
-1.0158602e-09
2.654383e-07
1.8431478e-08
-1.9537424e-09
2.4764214e-07
1.7904867e-08
1.9400564e-07
6.4065759e-14
2.0098658e-08
3.1738635e-11
3.6382838e-09
5.2403639e-08
7.8867758e-14
1.3712205e-11
5.8124137e-09
6.8453547e-08
-1.3982577e-11
6.9135046e-09
7.4934362e-08
-3.1899391e-11
5.8121956e-09
6.8453614e-08
3.6380435e-09
5.2403708e-08
-1.0827809e-14
-1.0265168e-10
1.4303843e-08
1.404456e-07
8.6494857e-14
-1.0884481e-10
1.9724827e-08
1.8775669e-07
1.0869281e-10
2.2241518e-08
2.0733565e-07
1.0248424e-10
1.9724583e-08
1.877568e-07
1.4303409e-08
1.4044571e-07
-7.255923e-15
4.3569275e-10
2.4155307e-08
2.0287661e-07
4.8584532e-14
2.9005551e-10
3.0045998e-08
2.7336759e-07
-2.9015518e-10
3.2326145e-08
3.0070274e-07
-4.3578026e-10
3.0045967e-08
2.7336793e-07
2.4155056e-08
2.02877e-07
5.6114195e-15
1.5229237e-09
2.5567325e-08
2.2506107e-07
5.3828114e-14
8.9051279e-10
2.7478991e-08
2.9739621e-07
-8.9062446e-10
2.8090189e-08
3.223147e-07
-1.5230449e-09
2.7479069e-08
2.9739644e-07
2.5567205e-08
2.2506146e-07
1.1118974e-14
2.1119078e-09
1.9950102e-07
9.0714404e-14
1.7959817e-08
1.0479813e-09
2.5924004e-07
1.6945046e-08
-1.0481695e-09
2.7860225e-07
1.702239e-08
-2.1120944e-09
2.5924006e-07
1.6945071e-08
1.9950099e-07
1.0891926e-14
1.7959753e-08
9.0578405e-11
1.722602e-09
5.0590395e-08
6.3175523e-14
9.7460884e-11
2.4737248e-09
6.597294e-08
-9.7624143e-11
3.0683235e-09
7.2061123e-08
-9.0712721e-11
2.4737067e-09
6.5972996e-08
1.7225439e-09
5.0590466e-08
-1.4999121e-14
5.7353848e-11
8.2777729e-09
1.3383295e-07
1.2217289e-13
2.9962805e-12
1.1812812e-08
1.7847196e-07
-3.2439251e-12
1.3713508e-08
1.966967e-07
-5.7537318e-11
1.1812782e-08
1.7847202e-07
8.2776952e-09
1.3383305e-07
-2.1415725e-14
3.1133724e-10
1.6419731e-08
1.944232e-07
1.1501198e-13
1.6559904e-10
2.1693492e-08
2.6363265e-07
-1.6581913e-10
2.3860472e-08
2.908872e-07
-3.1150649e-10
2.1693628e-08
2.6363277e-07
1.6419825e-08
1.9442338e-07
-1.4048923e-14
1.1793485e-09
1.9718432e-08
2.2058292e-07
1.0477742e-13
6.8543318e-10
2.2952762e-08
2.9663086e-07
-6.8558632e-10
2.3890159e-08
3.2365603e-07
-1.1795024e-09
2.2952991e-08
2.9663099e-07
1.9718651e-08
2.2058314e-07
-9.4798778e-15
1.8427502e-09
2.0194947e-07
1.0727548e-13
1.5427123e-08
9.515691e-10
2.6740825e-07
1.5675735e-08
-9.5167633e-10
2.8874152e-07
1.565413e-08
-1.8428873e-09
2.6740837e-07
1.567589e-08
2.0194947e-07
-1.208813e-14
1.5427291e-08
3.2003483e-11
9.9494292e-10
4.9563408e-08
4.0294045e-14
6.464524e-11
1.2454433e-09
6.4694855e-08
-6.4758159e-11
1.5234679e-09
7.0667059e-08
-3.2087854e-11
1.245445e-09
6.4694881e-08
9.9492491e-10
4.956347e-08
-1.7387998e-14
6.7283523e-11
5.0478613e-09
1.2971263e-07
1.1487182e-13
4.0878998e-11
7.2663863e-09
1.7247742e-07
-4.1225316e-11
8.5416632e-09
1.8976061e-07
-6.7480921e-11
7.2663055e-09
1.7247741e-07
5.0478148e-09
1.2971271e-07
-3.0790042e-14
2.2303801e-10
1.1070573e-08
1.8817731e-07
1.3647763e-13
7.6211877e-11
1.5398444e-08
2.5564742e-07
-7.6518469e-11
1.7145043e-08
2.8243655e-07
-2.2325607e-10
1.5398453e-08
2.5564736e-07
1.1070607e-08
1.8817736e-07
-2.7176506e-14
8.7400899e-10
1.4567404e-08
2.1621194e-07
1.3367071e-13
4.5034554e-10
1.8212332e-08
2.9424063e-07
-4.5057204e-10
1.9075218e-08
3.2262677e-07
-8.7421538e-10
1.8212469e-08
2.9424062e-07
1.4567578e-08
2.1621197e-07
-2.0976658e-14
1.4846716e-09
2.0275376e-07
1.3732586e-13
1.2278302e-08
7.4837945e-10
2.7292226e-07
1.3434611e-08
-7.4855541e-10
2.9598506e-07
1.3328618e-08
-1.4848564e-09
2.7292242e-07
1.3434721e-08
2.0275374e-07
-2.0038741e-14
1.2278473e-08
-7.1565155e-12
6.5164048e-10
4.8918906e-08
1.7961895e-14
2.7782583e-11
7.7468539e-10
6.388523e-08
-2.7868817e-11
9.3239188e-10
6.9790318e-08
7.0893905e-12
7.746785e-10
6.3885244e-08
6.5162751e-10
4.8918954e-08
-2.1850822e-14
4.9925897e-11
3.2811314e-09
1.2703313e-07
8.443303e-14
4.2070456e-11
4.7749404e-09
1.6848503e-07
-4.2357505e-11
5.677806e-09
1.8509963e-07
-5.0091625e-11
4.7748551e-09
1.6848497e-07
3.2811246e-09
1.2703316e-07
-4.4570542e-14
1.8556542e-10
7.6960619e-09
1.8357669e-07
1.2268726e-13
4.9941361e-11
1.1183594e-08
2.4937439e-07
-5.0303278e-11
1.2619576e-08
2.7559502e-07
-1.8579386e-10
1.1183538e-08
2.4937417e-07
7.6961241e-09
1.8357661e-07
-4.8548506e-14
6.9288849e-10
1.0855217e-08
2.1235978e-07
1.2266637e-13
3.1477621e-10
1.4494897e-08
2.9130744e-07
-3.1507065e-10
1.5264452e-08
3.2061174e-07
-6.931145e-10
1.4494971e-08
2.9130723e-07
1.0855391e-08
2.1235964e-07
-4.7153565e-14
1.2268199e-09
2.0264882e-07
1.2220848e-13
9.7332144e-09
5.9375742e-10
2.7668216e-07
1.1368065e-08
-5.9400855e-10
3.0127467e-07
1.116261e-08
-1.2270236e-09
2.7668229e-07
1.1368118e-08
2.0264881e-07
-5.3584943e-14
9.7333535e-09
-1.9099126e-11
4.7489436e-10
4.8463113e-08
-2.0930293e-15
1.2383609e-11
5.7849491e-10
6.3275253e-08
-1.2425649e-11
6.9379007e-10
6.9121338e-08
1.9050579e-11
5.7849109e-10
6.3275277e-08
4.7487038e-10
4.8463156e-08
-2.1738175e-14
3.7157098e-11
2.3061298e-09
1.251647e-07
4.3444259e-14
3.7719001e-11
3.3848232e-09
1.6567814e-07
-3.796206e-11
4.0423352e-09
1.8182676e-07
-3.7284042e-11
3.3847146e-09
1.6567807e-07
2.306097e-09
1.251647e-07
-4.9825003e-14
1.6545558e-10
5.6373071e-09
1.8007997e-07
8.7765339e-14
4.8286759e-11
8.5109392e-09
2.4436544e-07
-4.8623192e-11
9.7016018e-09
2.7003267e-07
-1.6566516e-10
8.5108012e-09
2.4436513e-07
5.6372903e-09
1.8007982e-07
-6.0247171e-14
5.8317451e-10
8.4292442e-09
2.0898457e-07
9.5967516e-14
2.419136e-10
1.1968249e-08
2.8819139e-07
-2.4223028e-10
1.2687557e-08
3.1810993e-07
-5.8339785e-10
1.196822e-08
2.8819098e-07
8.4292935e-09
2.089843e-07
-6.3151157e-14
1.0412749e-09
2.0200439e-07
9.9392551e-14
8.0323049e-09
5.026982e-10
2.7918824e-07
1.0000741e-08
-5.0301199e-10
3.0521119e-07
9.7567463e-09
-1.0414963e-09
2.7918825e-07
1.0000744e-08
2.0200431e-07
-7.3868218e-14
8.0323688e-09
-2.2573353e-11
3.7936515e-10
4.8106342e-08
-2.0769743e-14
6.6479514e-12
4.4833834e-10
6.2797693e-08
-6.6627711e-12
5.4064263e-10
6.8594006e-08
2.25626e-11
4.4832044e-10
6.2797731e-08
3.7933664e-10
4.8106399e-08
-1.6331465e-14
3.1915817e-11
1.7323857e-09
1.2377976e-07
5.0983724e-15
2.717107e-11
2.5279833e-09
1.6360324e-07
-2.7322238e-11
3.0054941e-09
1.794164e-07
-3.1994013e-11
2.5278703e-09
1.6360319e-07
1.732313e-09
1.2377978e-07
-4.9941764e-14
1.5669367e-10
4.3115028e-09
1.7734412e-07
4.709636e-14
5.415029e-11
6.7057091e-09
2.4029026e-07
-5.4444199e-11
7.6955448e-09
2.6545121e-07
-1.5687703e-10
6.7055055e-09
2.4028993e-07
4.3113706e-09
1.7734395e-07
-6.7788367e-14
4.9479223e-10
6.8015839e-09
2.0599963e-07
6.8091099e-14
2.0055782e-10
1.0140354e-08
2.8505098e-07
-2.0092256e-10
1.0870775e-08
3.1533618e-07
-4.9502909e-10
1.0140191e-08
2.850504e-07
6.8014491e-09
2.0599927e-07
-7.5841188e-14
8.9395719e-10
2.0102299e-07
8.9344073e-14
6.8889329e-09
4.463448e-10
2.8072331e-07
9.0528954e-09
-4.4679432e-10
3.0807881e-07
8.8962876e-09
-8.9424197e-10
2.8072309e-07
9.0527974e-09
2.0102277e-07
-8.9434053e-14
6.8888376e-09
-1.8921769e-11
2.9632772e-10
4.782897e-08
-3.3429269e-14
4.4469636e-12
3.6670126e-10
6.2407623e-08
-4.4273877e-12
4.3767262e-10
6.8165208e-08
1.8950337e-11
3.6668375e-10
6.240767e-08
2.9632711e-10
4.7829029e-08
-7.4968421e-15
1.9983356e-11
1.3354707e-09
1.2272067e-07
-4.0265266e-14
2.0497176e-11
1.9941128e-09
1.6197531e-07
-2.0577348e-11
2.3450098e-09
1.7755014e-07
-2.0008101e-11
1.9940083e-09
1.619753e-07
1.3354213e-09
1.2272072e-07
-3.4790774e-14
1.3371616e-10
3.3779887e-09
1.7516788e-07
-2.5302006e-15
5.1407671e-11
5.3977125e-09
2.3696897e-07
-5.1606977e-11
6.2196532e-09
2.6167958e-07
-1.3383312e-10
5.397511e-09
2.3696865e-07
3.377851e-09
1.7516775e-07
-6.0323078e-14
4.1308538e-10
5.5708119e-09
2.033937e-07
2.173131e-14
1.6740655e-10
8.6526145e-09
2.8204176e-07
-1.6770208e-10
9.3947014e-09
3.1249624e-07
-4.1327103e-10
8.6524068e-09
2.8204107e-07
5.5706187e-09
2.0339331e-07
-7.3869629e-14
7.5731492e-10
1.9986131e-07
5.0083164e-14
5.9751273e-09
4.0023791e-10
2.814953e-07
8.2377034e-09
-4.0065119e-10
3.1007018e-07
8.2042199e-09
-7.575671e-10
2.8149483e-07
8.2375783e-09
1.9986094e-07
-8.5817066e-14
5.974968e-09
-1.2552448e-11
2.2991866e-10
4.7611645e-08
-4.1311027e-14
3.2968539e-12
2.8942923e-10
6.2102345e-08
-3.2414729e-12
3.3940484e-10
6.7832341e-08
1.262053e-11
2.8940126e-10
6.2102407e-08
2.2993298e-10
4.7611715e-08
2.3627178e-15
1.7960312e-11
1.0442535e-09
1.2188843e-07
-5.9568698e-14
1.7286133e-11
1.5631773e-09
1.6070224e-07
-1.7273181e-11
1.8188646e-09
1.7610524e-07
-1.7940229e-11
1.5630939e-09
1.6070227e-07
1.0442093e-09
1.2188852e-07
-2.0732481e-14
1.1885299e-10
2.6667637e-09
1.7342656e-07
-4.2535889e-14
4.899076e-11
4.3483967e-09
2.3425361e-07
-4.9096034e-11
5.0247094e-09
2.5857182e-07
-1.1890609e-10
4.3482009e-09
2.3425335e-07
2.6666058e-09
1.7342649e-07
-4.5766195e-14
3.4834294e-10
4.5636431e-09
2.0114849e-07
-1.5557813e-14
1.4188716e-10
7.343605e-09
2.7925301e-07
-1.4210993e-10
8.0677228e-09
3.0973723e-07
-3.4848101e-10
7.3433523e-09
2.7925229e-07
4.5633867e-09
2.0114811e-07
-6.4123997e-14
6.3636165e-10
1.9862711e-07
2.6591213e-14
5.1614504e-09
3.5255917e-10
2.8168977e-07
7.4329412e-09
-3.5293926e-10
3.1134103e-07
7.5023728e-09
-6.3659223e-10
2.8168909e-07
7.4327541e-09
1.986266e-07
-7.6337226e-14
5.161211e-09
-8.7854657e-12
1.7233609e-10
4.7448146e-08
-5.1902142e-14
1.9554865e-12
2.1864749e-10
6.1872957e-08
-1.8488579e-12
2.5263635e-10
6.7583509e-08
8.9105192e-12
2.1863145e-10
6.1873016e-08
1.7240255e-10
4.7448206e-08
1.662658e-14
1.7974519e-11
8.0018722e-10
1.212427e-07
-8.6961334e-14
1.4426306e-11
1.2022734e-09
1.5972216e-07
-1.4271373e-11
1.3947824e-09
1.7499179e-07
-1.7878421e-11
1.2022873e-09
1.5972222e-07
8.0024118e-10
1.212428e-07
3.1392411e-15
1.0818644e-10
2.0959851e-09
1.7202266e-07
-8.3271875e-14
4.6362517e-11
3.4795069e-09
2.320382e-07
-4.6316172e-11
4.0390008e-09
2.5602028e-07
-1.081319e-10
3.4794373e-09
2.3203802e-07
2.0959711e-09
1.7202265e-07
-2.0024743e-14
3.007179e-10
3.7229037e-09
1.9922093e-07
-7.3436416e-14
1.2144763e-10
6.1919032e-09
2.7671988e-07
-1.2147867e-10
6.8754102e-09
3.0714375e-07
-3.0073035e-10
6.1917516e-09
2.7671923e-07
3.722786e-09
1.992206e-07
-3.8720254e-14
5.378892e-10
1.9738513e-07
-4.5282906e-14
4.4270463e-09
3.0715707e-10
2.8145901e-07
6.6533954e-09
-3.0728074e-10
3.1201161e-07
6.819265e-09
-5.3796195e-10
2.8145825e-07
6.6532654e-09
1.9738457e-07
-4.661318e-14
4.4268994e-09
-8.0299923e-12
1.2713017e-10
4.7329105e-08
-5.929251e-14
4.7470229e-13
1.5909302e-10
6.1705359e-08
-3.1637075e-13
1.8201809e-10
6.7402282e-08
8.2077219e-12
1.5908795e-10
6.1705404e-08
1.2724647e-10
4.7329138e-08
2.9966967e-14
1.5559661e-11
6.0584104e-10
1.2074854e-07
-1.1239352e-13
1.0767996e-11
9.2480048e-10
1.5896124e-07
-1.0456126e-11
1.0679111e-09
1.7412712e-07
-1.5382158e-11
9.2491974e-10
1.5896132e-07
6.0600133e-10
1.2074863e-07
3.3332532e-14
9.6550864e-11
1.6439747e-09
1.708881e-07
-1.2154014e-13
4.2757854e-11
2.7901535e-09
2.3022664e-07
-4.2549007e-11
3.2503248e-09
2.5392318e-07
-9.6376875e-11
2.7902186e-09
2.3022655e-07
1.6441132e-09
1.7088815e-07
1.3989786e-14
2.6049264e-10
3.0334589e-09
1.9757107e-07
-1.2029234e-13
1.0620823e-10
5.2113093e-09
2.7445301e-07
-1.0603334e-10
5.8474778e-09
3.0475883e-07
-2.6036426e-10
5.211267e-09
2.7445251e-07
3.0334973e-09
1.9757086e-07
-7.0104485e-15
4.5657194e-10
1.9617787e-07
-1.1628856e-13
3.7842588e-09
2.6264021e-10
2.8094658e-07
5.9176741e-09
-2.624846e-10
3.1221151e-07
6.1727072e-09
-4.5646702e-10
2.809459e-07
5.9176022e-09
1.9617739e-07
-1.4429766e-14
3.7842288e-09
-7.684027e-12
9.2186633e-11
4.7244665e-08
-6.2454512e-14
-5.0134837e-13
1.1305189e-10
6.1585125e-08
7.0459548e-13
1.2908048e-10
6.7271996e-08
7.9067083e-12
1.1305869e-10
6.1585144e-08
9.2359476e-11
4.7244644e-08
4.1197735e-14
1.2603159e-11
4.5872759e-10
1.2036953e-07
-1.3290043e-13
7.5424692e-12
7.0973411e-10
1.5836962e-07
-7.0462863e-12
8.189259e-10
1.7345187e-07
-1.2343679e-11
7.0999395e-10
1.5836968e-07
4.5902149e-10
1.2036956e-07
6.2107761e-14
8.4158487e-11
1.2957266e-09
1.699671e-07
-1.5757713e-13
3.8875412e-11
2.2414666e-09
2.2874019e-07
-3.8478224e-11
2.6280245e-09
2.5219143e-07
-8.3846449e-11
2.2417254e-09
2.2874019e-07
1.2960865e-09
1.6996718e-07
5.1450209e-14
2.2823181e-10
2.4816464e-09
1.9615709e-07
-1.7169747e-13
9.2609105e-11
4.4020541e-09
2.7242804e-07
-9.2175701e-11
4.9846865e-09
3.0258696e-07
-2.2792154e-10
4.4022004e-09
2.7242779e-07
2.4819424e-09
1.9615704e-07
3.8991808e-14
3.9123294e-10
1.9502881e-07
-2.0452735e-13
3.2396816e-09
2.2493678e-10
2.802491e-07
5.2658255e-09
-2.2438849e-10
3.1205562e-07
5.5899011e-09
-3.9087675e-10
2.8024869e-07
5.2658951e-09
1.9502854e-07
3.5876637e-14
3.2398749e-09
-6.9853848e-12
6.3676474e-11
4.7188031e-08
-5.6880033e-14
-1.1608529e-12
7.7283919e-11
6.1502018e-08
1.392018e-12
8.8456295e-11
6.7180988e-08
7.2246922e-12
7.7304397e-11
6.1502004e-08
6.3870029e-11
4.7187949e-08
4.823939e-14
1.0119308e-11
3.4199332e-10
1.2008123e-07
-1.3894756e-13
5.1166974e-12
5.4161825e-10
1.579103e-07
-4.4382245e-12
6.2588906e-10
1.72924e-07
-9.8019174e-12
5.4199178e-10
1.5791034e-07
3.4235228e-10
1.2008119e-07
8.7978051e-14
7.2815049e-11
1.019579e-09
1.6921688e-07
-1.7856828e-13
3.4988118e-11
1.8066885e-09
2.2751295e-07
-3.442738e-11
2.132712e-09
2.5075403e-07
-7.2385748e-11
1.8070981e-09
2.2751304e-07
1.0200799e-09
1.6921698e-07
8.8298745e-14
2.0049527e-10
2.033377e-09
1.94943e-07
-2.0524716e-13
8.112382e-11
3.7252874e-09
2.7062882e-07
-8.0476844e-11
4.254398e-09
3.0062687e-07
-2.0002928e-10
3.7255863e-09
2.7062885e-07
2.0338659e-09
1.9494315e-07
8.1257141e-14
3.3638763e-10
1.939507e-07
-2.6641011e-13
2.7753656e-09
1.9332193e-10
2.7943738e-07
4.6800778e-09
-1.9245746e-10
3.1164718e-07
5.0486223e-09
-3.3582029e-10
2.7943737e-07
4.6802705e-09
1.9395075e-07
8.6021218e-14
2.7757483e-09
-6.4912648e-12
4.190467e-11
4.7152665e-08
-4.8034154e-14
-1.5911085e-12
5.0400039e-11
6.1446716e-08
1.8460137e-12
5.7741591e-11
6.7119813e-08
6.7213308e-12
5.0460212e-11
6.1446674e-08
4.2094509e-11
4.7152527e-08
4.7538121e-14
7.971935e-12
2.4863794e-10
1.1986667e-07
-1.3531585e-13
2.9154374e-12
4.0783791e-10
1.5755792e-07
-2.1887114e-12
4.7063445e-10
1.7251619e-07
-7.6089547e-12
4.0827976e-10
1.5755795e-07
2.4902788e-10
1.1986654e-07
1.0289964e-13
6.2477291e-11
7.9678185e-10
1.6860645e-07
-1.8701869e-13
3.0512523e-11
1.4541299e-09
2.2649863e-07
-2.9826502e-11
1.7232361e-09
2.4956176e-07
-6.1963679e-11
1.4546542e-09
2.264988e-07
7.9736945e-10
1.6860656e-07
1.1909227e-13
1.7647981e-10
1.6635729e-09
1.9389996e-07
-2.2185343e-13
7.3789771e-11
3.1493729e-09
2.6903627e-07
-7.2970956e-11
3.63406e-09
2.9886281e-07
-1.7588794e-10
3.1498081e-09
2.6903661e-07
1.6642051e-09
1.939003e-07
1.2250809e-13
2.906743e-10
1.9294963e-07
-2.9989508e-13
2.3742657e-09
1.687131e-10
2.7855949e-07
4.1492213e-09
-1.6758215e-10
3.1106965e-07
4.5478828e-09
-2.8993293e-10
2.7855999e-07
4.1495461e-09
1.9295008e-07
1.3945325e-13
2.3748103e-09
-6.037488e-12
2.321048e-11
4.7135516e-08
-2.515024e-14
-1.7422746e-12
2.6813554e-11
6.141561e-08
1.8849116e-12
3.0901048e-11
6.7085287e-08
6.2083309e-12
2.6855535e-11
6.1415497e-08
2.3363278e-11
4.713533e-08
3.9649402e-14
6.2676996e-12
1.6965131e-10
1.1971406e-07
-1.0558458e-13
1.4342735e-12
2.9493295e-10
1.5729464e-07
-9.123417e-13
3.4125435e-10
1.7220819e-07
-5.9579599e-12
2.9526834e-10
1.5729458e-07
1.6999203e-10
1.1971385e-07
1.0010426e-13
5.336197e-11
6.1045384e-10
1.6811245e-07
-1.6909953e-13
2.6156511e-11
1.1594796e-09
2.2566129e-07
-2.5407013e-11
1.382699e-09
2.4857188e-07
-5.2842558e-11
1.1599892e-09
2.2566151e-07
6.1101965e-10
1.6811255e-07
1.294082e-13
1.5548715e-10
1.3507654e-09
1.9300437e-07
-2.1057862e-13
6.7107639e-11
2.6525813e-09
2.6763154e-07
-6.6217161e-11
3.0960742e-09
2.9728276e-07
-1.5485228e-10
2.653053e-09
2.6763218e-07
1.3514244e-09
1.930049e-07
1.4352161e-13
2.5180822e-10
1.9202707e-07
-2.9022064e-13
2.0218068e-09
1.4746885e-10
2.7765309e-07
3.6633235e-09
-1.4623575e-10
3.1038253e-07
4.0768952e-09
-2.5100248e-10
2.7765409e-07
3.6637119e-09
1.9202791e-07
1.7285131e-13
2.022413e-09
-5.5638116e-12
6.3350477e-12
4.7134743e-08
-2.2089167e-15
-1.8708569e-12
5.1586134e-12
6.140675e-08
1.9604213e-12
6.3856699e-12
6.7075083e-08
5.6664962e-12
5.1877038e-12
6.1406604e-08
6.4315606e-12
4.7134535e-08
3.1138922e-14
4.8323355e-12
1.0354724e-10
1.1961203e-07
-6.4977384e-14
4.2110308e-13
1.9932712e-10
1.5710492e-07
2.3605965e-14
2.3288847e-10
1.7198211e-07
-4.606615e-12
1.9959292e-10
1.5710482e-07
1.0378295e-10
1.1961178e-07
8.8242904e-14
4.5334552e-11
4.5527947e-10
1.6771549e-07
-1.3330423e-13
2.2078015e-11
9.1203292e-10
2.2497187e-07
-2.1366909e-11
1.0973939e-09
2.4775083e-07
-4.4861425e-11
9.1248445e-10
2.2497213e-07
4.5575029e-10
1.6771559e-07
1.2480766e-13
1.3665017e-10
1.0875811e-09
1.9223559e-07
-1.7773975e-13
6.0527909e-11
2.2241449e-09
2.6639556e-07
-5.9671779e-11
2.6273797e-09
2.9587297e-07
-1.3604072e-10
2.2246008e-09
2.6639644e-07
1.0881909e-09
1.9223627e-07
1.4765221e-13
2.1875143e-10
1.9118162e-07
-2.4649688e-13
1.7145333e-09
1.289664e-10
2.7674548e-07
3.2215367e-09
-1.2776139e-10
3.0962596e-07
3.6406836e-09
-2.1796938e-10
2.7674695e-07
3.2219563e-09
1.9118281e-07
1.8702666e-13
1.715135e-09
-5.1444967e-12
-7.4032174e-12
4.7147265e-08
2.6364979e-14
-1.9321409e-12
-1.1729078e-11
6.1415221e-08
1.9200915e-12
-1.1907969e-11
6.7083173e-08
5.1644161e-12
-1.1711121e-11
6.1415084e-08
-7.3823596e-12
4.714705e-08
5.709349e-14
3.4423349e-12
4.7525556e-11
1.1955367e-07
-1.4742644e-14
-5.7693022e-13
1.1907949e-10
1.5697813e-07
8.5544655e-13
1.4276383e-10
1.7182603e-07
-3.3360155e-12
1.1926741e-10
1.5697801e-07
4.7600448e-11
1.1955338e-07
1.0852307e-13
3.8217825e-11
3.2353886e-10
1.6740136e-07
-8.2577877e-14
1.8408904e-11
7.0263619e-10
2.2440812e-07
-1.7841868e-11
8.564129e-10
2.4707346e-07
-3.784443e-11
7.02981e-10
2.244084e-07
3.2380421e-10
1.6740144e-07
1.2511725e-13
1.1966659e-10
8.6323535e-10
1.9157635e-07
-1.272545e-13
5.439609e-11
1.8526874e-09
2.6531078e-07
-5.3698107e-11
2.2169996e-09
2.9462049e-07
-1.1916285e-10
1.8530598e-09
2.6531182e-07
8.6367083e-10
1.9157711e-07
1.4160489e-13
1.8909755e-10
1.9040905e-07
-1.7336842e-13
1.4468731e-09
1.1264093e-10
2.7585552e-07
2.8191017e-09
-1.1164591e-10
3.0883249e-07
3.2347563e-09
-1.8845592e-10
2.7585733e-07
2.8194846e-09
1.904105e-07
1.7396962e-13
1.4473599e-09
-5.0368858e-12
-1.8223778e-11
4.7170451e-08
5.0232048e-14
-1.895564e-12
-2.6231445e-11
6.1438359e-08
1.8090219e-12
-2.7573912e-11
6.7107054e-08
4.9335802e-12
-2.6246655e-11
6.1438228e-08
-1.8309505e-11
4.7170298e-08
-1.3084394e-14
2.8823314e-12
-5.3925185e-13
1.1953307e-07
4.2542516e-14
-9.9709484e-13
5.2090564e-11
1.5690369e-07
1.2241869e-12
6.802595e-11
1.717282e-07
-2.7228291e-12
5.214718e-11
1.5690354e-07
-5.2454469e-13
1.1953284e-07
2.1078027e-14
3.1564884e-11
2.1370423e-10
1.6715558e-07
-1.4575028e-14
1.488413e-11
5.2677859e-10
2.2395011e-07
-1.4537281e-11
6.5416612e-10
2.4651674e-07
-3.136513e-11
5.2697898e-10
2.2395038e-07
2.1379931e-10
1.6715567e-07
6.6150715e-14
1.0391659e-10
6.7455179e-10
1.9101164e-07
-5.4887478e-14
4.8402175e-11
1.5331359e-09
2.6435994e-07
-4.7939097e-11
1.860947e-09
2.9351006e-07
-1.0358312e-10
1.5333912e-09
2.6436105e-07
6.7478304e-10
1.9101244e-07
9.5261951e-14
1.6300926e-10
1.89707e-07
-8.1837416e-14
1.2136713e-09
9.824427e-11
2.7499609e-07
2.4573354e-09
-9.7555377e-11
3.0802651e-07
2.8627351e-09
-1.6257768e-10
2.749981e-07
2.4576469e-09
1.8970859e-07
1.2796658e-13
1.213985e-09
-4.9440576e-12
-2.7720173e-11
4.7203055e-08
7.0982223e-14
-1.9223327e-12
-3.8986797e-11
6.1474326e-08
1.7382379e-12
-4.1540358e-11
6.7144935e-08
4.7668586e-12
-3.9030796e-11
6.1474227e-08
-2.7861421e-11
4.720295e-08
-3.658421e-14
1.242293e-12
-3.7509725e-11
1.1954152e-07
9.8678419e-14
-1.6325856e-12
-6.4380647e-12
1.5687402e-07
1.5054188e-12
2.5522781e-12
1.7168097e-07
-1.3804271e-12
-6.4816355e-12
1.5687388e-07
-3.7724116e-11
1.1954135e-07
-2.487313e-14
2.6676356e-11
1.2185718e-10
1.6696949e-07
5.4514807e-14
1.2164225e-11
3.7547752e-10
2.2358271e-07
-1.210932e-11
4.802663e-10
2.460633e-07
-2.6658393e-11
3.755005e-10
2.2358295e-07
1.216867e-10
1.6696958e-07
1.706749e-14
9.0460902e-11
5.1320511e-10
1.9052981e-07
2.1779302e-14
4.3167752e-11
1.2542559e-09
2.6352846e-07
-4.3018066e-11
1.5481387e-09
2.9252837e-07
-9.0346012e-11
1.2543434e-09
2.6352953e-07
5.1315384e-10
1.9053059e-07
4.1803978e-14
1.4050637e-10
1.8907148e-07
3.0885448e-14
1.0081901e-09
8.5920096e-11
2.7417562e-07
2.129318e-09
-8.5658801e-11
3.0722604e-07
2.5201827e-09
-1.4035762e-10
2.7417765e-07
2.1294916e-09
1.8907306e-07
5.85354e-14
1.0082645e-09
-4.8020024e-12
-3.5941772e-11
4.7243715e-08
8.3368426e-14
-1.8915616e-12
-4.9481427e-11
6.1520897e-08
1.6299002e-12
-5.2753525e-11
6.7194167e-08
4.5561711e-12
-4.953753e-11
6.1520839e-08
-3.6120745e-11
4.7243683e-08
-5.6553262e-14
-1.4731932e-13
-7.1168094e-11
1.1957675e-07
1.4186059e-13
-2.0599306e-12
-5.5468153e-11
1.5688192e-07
1.7381647e-12
-5.0479711e-11
1.716749e-07
-1.566422e-13
-5.5571592e-11
1.5688181e-07
-7.1528846e-11
1.1957668e-07
-7.3743823e-14
2.2010183e-11
4.2292265e-11
1.668339e-07
1.1808367e-13
9.5091155e-12
2.4695982e-10
2.2329278e-07
-9.7635092e-12
3.3360906e-10
2.4569848e-07
-2.2184117e-11
2.4682258e-10
2.2329298e-07
4.1889707e-11
1.6683402e-07
-3.9338163e-14
7.7703651e-11
3.7474601e-10
1.9011956e-07
9.5107287e-14
3.800956e-11
1.0127066e-09
2.628024e-07
-3.8182194e-11
1.2753186e-09
2.9166285e-07
-7.781825e-11
1.0126286e-09
2.6280337e-07
3.744339e-10
1.9012024e-07
-1.7163472e-14
1.2065396e-10
1.8849771e-07
1.2607366e-13
8.2774091e-10
7.5100937e-11
2.733988e-07
1.8350778e-09
-7.5272741e-11
3.0644437e-07
2.2073661e-09
-1.207933e-10
2.734007e-07
1.8351005e-09
1.8849916e-07
-2.1314105e-14
8.2756805e-10
-4.66106e-12
-4.2999242e-11
4.7291287e-08
8.8440179e-14
-1.8206341e-12
-5.8761246e-11
6.1576818e-08
1.5106362e-12
-6.2813865e-11
6.725365e-08
4.3751132e-12
-5.8829469e-11
6.1576804e-08
-4.3200345e-11
4.729133e-08
-7.0695214e-14
-1.2291246e-12
-9.967743e-11
1.1963448e-07
1.7649016e-13
-2.3426858e-12
-9.8148523e-11
1.5692242e-07
1.8517993e-12
-9.8023452e-11
1.7170592e-07
7.8710399e-13
-9.8292109e-11
1.5692234e-07
-1.0014454e-10
1.1963453e-07
-1.1756148e-13
1.7978069e-11
-2.6138581e-11
1.667422e-07
1.7552052e-13
7.5284944e-12
1.3515551e-10
2.2306993e-07
-8.0814397e-12
2.0517267e-10
2.454109e-07
-1.8325253e-11
1.34863e-10
2.2307007e-07
-2.6712981e-11
1.6674236e-07
-9.8758947e-14
6.6252574e-11
2.5446208e-10
1.8977255e-07
1.6034293e-13
3.3266194e-11
8.0044016e-10
2.6217011e-07
-3.3758344e-11
1.0338693e-09
2.9090118e-07
-6.6600252e-11
8.0018365e-10
2.6217089e-07
2.5389096e-10
1.8977312e-07
-8.3470033e-14
1.032312e-10
1.8798147e-07
2.0899842e-13
6.6725589e-10
6.5323336e-11
2.7266812e-07
1.5690278e-09
-6.5950588e-11
3.0568964e-07
1.9198674e-09
-1.036657e-10
2.7266974e-07
1.5688566e-09
1.8798268e-07
-1.0802974e-13
6.6681443e-10
-4.5876275e-12
-4.873325e-11
4.7344521e-08
8.7132241e-14
-1.7619455e-12
-6.6382526e-11
6.1640375e-08
1.435249e-12
-7.0997239e-11
6.7321451e-08
4.3000917e-12
-6.6474173e-11
6.1640414e-08
-4.8909472e-11
4.7344618e-08
-7.8355314e-14
-2.4585888e-12
-1.2310537e-10
1.1971111e-07
2.0780539e-13
-2.6360603e-12
-1.3397495e-10
1.5699019e-07
2.0167478e-12
-1.3712863e-10
1.7176739e-07
1.7750588e-12
-1.3405065e-10
1.5699016e-07
-1.2369274e-10
1.1971124e-07
-1.55597e-13
1.4143284e-11
-8.3140292e-11
1.6668788e-07
2.1767912e-13
5.439744e-12
3.9916271e-11
2.2290474e-07
-6.2542666e-12
9.5908069e-11
2.4518956e-07
-1.4615697e-11
3.9558097e-11
2.2290482e-07
-8.3866429e-11
1.6668807e-07
-1.4871735e-13
5.6209518e-11
1.5116957e-10
1.8948182e-07
2.1219005e-13
2.8651888e-11
6.1601615e-10
2.6162156e-07
-2.9421072e-11
8.2212386e-10
2.9023304e-07
-5.6733913e-11
6.1562886e-10
2.6162213e-07
1.5042481e-10
1.8948223e-07
-1.3897866e-13
8.8226189e-11
1.8751807e-07
2.6650407e-13
5.2608472e-10
5.6903581e-11
2.7198477e-07
1.3306904e-09
-5.7883428e-11
3.0496879e-07
1.6577637e-09
-8.888105e-11
2.7198601e-07
1.3303569e-09
1.8751895e-07
-1.7843326e-13
5.2545362e-10
-4.4267115e-12
-5.3959154e-11
4.7402833e-08
7.4808692e-14
-1.6160341e-12
-7.331333e-11
6.1710879e-08
1.3120913e-12
-7.792431e-11
6.7396447e-08
4.1573396e-12
-7.338966e-11
6.1710959e-08
-5.411958e-11
4.7402974e-08
-7.8840656e-14
-3.5987109e-12
-1.4378922e-10
1.1980433e-07
2.0387659e-13
-2.6998349e-12
-1.6639364e-10
1.5708237e-07
2.0259562e-12
-1.7021498e-10
1.7185496e-07
2.7763766e-12
-1.6638439e-10
1.5708241e-07
-1.4446545e-10
1.1980455e-07
-1.8514419e-13
1.1034636e-11
-1.3335096e-10
1.6666617e-07
2.3238285e-13
4.2295395e-12
-4.6089768e-11
2.2279125e-07
-5.256511e-12
4.069595e-12
2.4502476e-07
-1.1583628e-11
-4.6529588e-11
2.2279129e-07
-1.3419014e-10
1.666664e-07
-1.887761e-13
4.7087016e-11
6.1350297e-11
1.8923978e-07
2.5012695e-13
2.3512388e-11
4.5237341e-10
2.6114668e-07
-2.4456393e-11
6.3479993e-10
2.8965028e-07
-4.7741605e-11
4.5187856e-10
2.6114701e-07
6.0471239e-11
1.8924003e-07
-1.955061e-13