/*--------------------------------*- C++ -*----------------------------------*\
| =========                 |                                                 |
| \\      /  F ield         | OpenFOAM: The Open Source CFD Toolbox           |
|  \\    /   O peration     | Version:  2.3.x                                 |
|   \\  /    A nd           | Web:      www.OpenFOAM.org                      |
|    \\/     M anipulation  |                                                 |
\*---------------------------------------------------------------------------*/
FoamFile
{
    version     2.0;
    format      ascii;
    class       volScalarField;
    location    "0.021";
    object      rho;
}
// * * * * * * * * * * * * * * * * * * * * * * * * * * * * * * * * * * * * * //

dimensions      [1 -3 0 0 0 0 0];

internalField   nonuniform List<scalar> 
10000
(
0.62331393
0.6762046
0.69664616
0.67620465
0.62331398
0.97428191
1.0098274
1.0204512
1.0098274
0.97428193
1.0693365
1.0774476
1.079389
1.0774476
1.0693365
1.0844186
1.0857372
1.0859781
1.0857372
1.0844185
1.0863739
1.0865582
1.0865792
1.0865582
1.0863739
0.44497612
0.46505015
0.47410628
0.46505009
0.44497603
0.68841888
0.76927526
0.79866749
0.7692746
0.68841806
0.94909005
1.0086352
1.0239468
1.0086321
0.94908573
1.0580837
1.074407
1.0775114
1.0744067
1.058083
1.0816597
1.0851051
1.0855403
1.0851051
1.0816598
0.41478895
0.42302424
0.42668862
0.4230243
0.41478903
0.57859922
0.63841815
0.66394041
0.63841882
0.5785999
0.8291975
0.91214665
0.93815586
0.91214869
0.82919986
1.0069456
1.0490026
1.0578437
1.0490048
1.0069483
1.0699917
1.0813025
1.082768
1.0813028
1.0699962
0.40598143
0.41119805
0.41321238
0.41119814
0.40598158
0.52562326
0.56826475
0.5872394
0.5682655
0.52562428
0.7378237
0.8267623
0.8577504
0.82676498
0.73782748
0.94719305
1.0129245
1.0285115
1.0129267
0.94719752
1.0493865
1.0737213
1.0772196
1.0737217
1.0493895
0.40215947
0.40648434
0.4081037
0.40648434
0.40215951
0.49908274
0.53054104
0.54451237
0.5305412
0.49908307
0.67578878
0.75823493
0.78945078
0.75823599
0.67579035
0.88843822
0.97085835
0.99276912
0.97085894
0.88843987
1.0221548
1.0616166
1.0682456
1.061616
1.0221543
0.39960645
0.40354571
0.40500335
0.40354571
0.39960649
0.48332955
0.50855015
0.51931747
0.50855024
0.48332983
0.63360687
0.70685766
0.73598535
0.70685849
0.63360808
0.83664366
0.92838138
0.95511958
0.92838264
0.83664581
0.9911535
1.0456626
1.0559871
1.0456635
0.99115461
0.3977062
0.40132798
0.40266639
0.40132796
0.3977062
0.47267705
0.49418092
0.50305747
0.49418086
0.47267712
0.6038644
0.6683339
0.69481974
0.6683341
0.60386485
0.79326679
0.88852908
0.91868292
0.88852967
0.79326777
0.95955156
1.0273384
1.0416106
1.0273394
0.95955224
0.39622021
0.39956929
0.40080364
0.39956924
0.39622017
0.4648056
0.48381898
0.49150801
0.48381875
0.46480546
0.58189614
0.63884932
0.66267942
0.63884892
0.58189595
0.75724176
0.85221541
0.88443917
0.85221519
0.75724162
0.92875064
1.0075594
1.0257664
1.0075599
0.92875052
0.39500748
0.39812408
0.39927141
0.39812402
0.39500742
0.4586186
0.47576899
0.48263748
0.4757687
0.45861838
0.56489291
0.61559883
0.63700443
0.61559819
0.56489253
0.72705953
0.81932822
0.8525066
0.81932774
0.72705935
0.89928143
0.98673321
1.0087139
0.98673438
0.89928245
0.39398341
0.39691191
0.39798996
0.39691185
0.39398334
0.4535387
0.46924448
0.4755079
0.46924413
0.45353836
0.55119191
0.59682348
0.61614557
0.5968225
0.55119111
0.70142334
0.78968273
0.8229414
0.78968116
0.70142203
0.87128375
0.96512814
0.99055909
0.96512742
0.87128276
0.3931049
0.39586847
0.39688955
0.39586843
0.39310485
0.44927098
0.46377792
0.4695616
0.46377763
0.44927072
0.53986355
0.5813194
0.59888065
0.58131851
0.5398629
0.67947917
0.76312026
0.79581482
0.76311871
0.67947811
0.84500827
0.94317709
0.97160383
0.94317655
0.84500778
0.39233721
0.39495941
0.3959325
0.39495936
0.39233716
0.44560896
0.45911819
0.46450834
0.4591179
0.4456087
0.53028938
0.5683039
0.58439318
0.56830291
0.5302886
0.66054314
0.73942056
0.77112389
0.73941834
0.66054142
0.82059925
0.92126399
0.95217051
0.92126149
0.82059679
0.39166002
0.39416073
0.39509164
0.39416071
0.39166
0.44242943
0.45510268
0.46015903
0.45510248
0.44242929
0.52208406
0.55724991
0.57210204
0.55724913
0.52208352
0.64410346
0.7183726
0.74883551
0.71837067
0.64410206
0.79811014
0.89976588
0.93261624
0.89976358
0.79810795
0.39105598
0.39345076
0.39434401
0.39345076
0.39105598
0.43963384
0.4515938
0.45636328
0.45159366
0.43963376
0.51495622
0.54772219
0.56152903
0.54772151
0.51495576
0.6297207
0.6996597
0.72876281
0.69965777
0.62971925
0.77747762
0.8789354
0.91319955
0.87893241
0.77747471
0.39051162
0.39281318
0.3936724
0.3928132
0.39051165
0.4371463
0.44849196
0.45301134
0.44849196
0.43714639
0.50868466
0.53940831
0.55232073
0.53940798
0.50868459
0.61702862
0.68298125
0.71069503
0.68298004
0.61702788
0.75857481
0.85893236
0.8941231
0.8589304
0.75857297
0.3900169
0.39223535
0.3930636
0.39223539
0.39001696
0.43491125
0.44572035
0.45001883
0.44572046
0.43491146
0.50310722
0.53206677
0.54420285
0.53206676
0.50310745
0.60573701
0.66804968
0.69439914
0.6680491
0.60573686
0.74125296
0.83985301
0.87554388
0.83985186
0.74125196
0.38956388
0.39170759
0.39250774
0.39170766
0.38956398
0.43288602
0.44322134
0.44732436
0.4432216
0.4328864
0.49810202
0.52552038
0.53697931
0.52552079
0.4981027
0.59561819
0.65462409
0.67967046
0.65462449
0.59561904
0.72536288
0.82174987
0.85757588
0.82175046
0.72536372
0.38914667
0.39122276
0.39199734
0.39122285
0.38914679
0.43103841
0.44095167
0.44488016
0.44095205
0.4310389
0.49357674
0.51963534
0.53049678
0.5196361
0.49357776
0.58649399
0.64250071
0.66632043
0.64250194
0.58649566
0.71077099
0.80465178
0.84031623
0.80465383
0.71077337
0.38876064
0.39077531
0.39152652
0.39077542
0.38876078
0.42934335
0.43887807
0.44264965
0.43887854
0.42934394
0.48945865
0.51430771
0.52463708
0.51430879
0.48946002
0.5782173
0.63150228
0.65417862
0.6315044
0.57821986
0.6973411
0.78854082
0.82381058
0.78854462
0.69734533
0.3884016
0.39036002
0.39108963
0.39036012
0.38840174
0.42777959
0.43697242
0.44060186
0.43697292
0.42778021
0.48568957
0.50945559
0.519308
0.50945686
0.48569108
0.57067193
0.62148512
0.64310255
0.6214878
0.570675
0.68496147
0.77340395
0.80810436
0.77340888
0.68496686
0.38806632
0.38997282
0.39068242
0.38997292
0.38806645
0.42633039
0.43521139
0.43871109
0.43521189
0.426331
0.48222176
0.50500916
0.51443064
0.50501053
0.48222336
0.56375641
0.61231573
0.63295511
0.61231883
0.56375987
0.67351412
0.75918218
0.79318647
0.75918809
0.67352054
0.38775196
0.38961063
0.39030172
0.38961071
0.38775207
0.42498093
0.43357778
0.43695896
0.43357821
0.42498145
0.47901563
0.50091707
0.50994788
0.50091837
0.4790171
0.55739248
0.60389488
0.62363201
0.60389801
0.55739588
0.66291328
0.74584332
0.779066
0.74584949
0.66291988
0.38745618
0.38927033
0.38994414
0.38927039
0.38745626
0.42371951
0.43205479
0.43532683
0.43205513
0.42371992
0.47603794
0.49713062
0.50580529
0.49713177
0.47603922
0.55150734
0.59612331
0.6150288
0.59612627
0.55151049
0.65306048
0.7333131
0.76569992
0.73331918
0.65306688
0.38717725
0.38894986
0.38960751
0.3889499
0.38717729
0.42253737
0.43063102
0.43380215
0.43063126
0.42253762
0.47326494
0.49361646
0.50196431
0.49361737
0.47326588
0.54605158
0.58893368
0.60706995
0.58893621
0.54605414
0.64389495
0.72155681
0.75307967
0.7215622
0.64390047
0.38691313
0.38864684
0.38928947
0.38864686
0.38691314
0.42142444
0.42929396
0.43237222
0.42929409
0.42142455
0.47066961
0.49033864
0.49838803
0.49033926
0.47067019
0.54096814
0.58225002
0.59967777
0.58225199
0.54097
0.63533349
0.71049711
0.74114604
0.71050157
0.63533786
0.38666277
0.38835991
0.38898824
0.38835991
0.38666274
0.42037535
0.42803616
0.43102715
0.42803618
0.4203753
0.46823709
0.48727543
0.49504671
0.48727575
0.46823729
0.5362251
0.57602688
0.59279541
0.57602817
0.53622612
0.62733339
0.70010334
0.72988391
0.70010654
0.62733626
0.3864245
0.38808723
0.38870222
0.38808721
0.38642445
0.41938206
0.4268481
0.42975826
0.42684804
0.4193819
0.46594613
0.48439981
0.49191563
0.48439986
0.46594599
0.53177701
0.57020582
0.58636446
0.57020646
0.53177728
0.61982353
0.69030236
0.71922647
0.69030427
0.61982493
0.38619774
0.38782785
0.3884303
0.38782781
0.38619767
0.41844148
0.42572456
0.4285595
0.42572442
0.41844122
0.4637881
0.48169635
0.48897615
0.48169617
0.46378766
0.5276057
0.56475417
0.58034878
0.5647542
0.52760522
0.61277856
0.68106883
0.70916258
0.68106945
0.61277846
0.38598106
0.38758022
0.38817078
0.38758017
0.38598099
0.41754701
0.42465783
0.42742201
0.42465766
0.4175467
0.46174583
0.47914393
0.4862032
0.47914359
0.46174518
0.52367431
0.55962655
0.57469325
0.55962606
0.52367324
0.60613876
0.67233782
0.69962057
0.67233728
0.60613738
0.385774
0.38734368
0.38792313
0.38734364
0.38577392
0.41669613
0.42364423
0.42634264
0.42364403
0.41669579
0.45981227
0.4767314
0.48358696
0.47673093
0.45981148
0.51996736
0.55479777
0.56937734
0.55479691
0.5199659
0.59988099
0.66408557
0.69059415
0.66408418
0.59987869
0.38557543
0.38711711
0.38768582
0.38711707
0.38557535
0.41588359
0.42267812
0.42531374
0.42267791
0.41588325
0.45797389
0.47444401
0.48110598
0.47444348
0.45797305
0.51645657
0.55023763
0.56435283
0.55023648
0.51645487
0.5939584
0.65626332
0.68201354
0.6562612
0.59395542
0.38538508
0.38690012
0.3874587
0.38690008
0.38538501
0.41510794
0.42175736
0.42433405
0.42175717
0.41510764
0.45622655
0.47227472
0.47875631
0.47227418
0.45622575
0.51313222
0.54592884
0.5596128
0.54592763
0.5131305
0.58835521
0.64885282
0.67388182
0.64885043
0.58835202
0.38520193
0.38669137
0.38724026
0.38669134
0.38520187
0.41436457
0.4208757
0.42339643
0.42087554
0.41436432
0.45455873
0.47020741
0.47651867
0.47020691
0.45455802
0.50997087
0.54183777
0.55511492
0.54183652
0.50996919
0.58303333
0.64180287
0.66613462
0.64180023
0.58303003
0.38502589
0.38649085
0.38703053
0.38649083
0.38502585
0.4136528
0.42003251
0.42250044
0.42003239
0.41365261
0.45296805
0.46823921
0.47439078
0.4682388
0.45296748
0.50696611
0.53795575
0.55085277
0.53795469
0.50696468
0.57797947
0.63509978
0.65876984
0.63509743
0.57797655
0.38485604
0.38629741
0.38682824
0.3862974
0.38485602
0.41296856
0.41922251
0.42164006
0.41922242
0.41296842
0.45144473
0.46635676
0.47235689
0.46635643
0.45144426
0.5040991
0.5342569
0.54679288
0.53425593
0.50409785
0.57316509
0.62870914
0.65173612
0.62870684
0.57316238
0.38469244
0.3861112
0.38663358
0.3861112
0.38469243
0.4123118
0.41844591
0.42081563
0.41844586
0.41231174
0.44998777
0.46455914
0.4704163
0.46455891
0.44998749
0.50136573
0.53073514
0.54293059
0.53073446
0.50136492
0.56857996
0.62261517
0.64502567
0.62261347
0.56857805
0.38453419
0.38593107
0.38644537
0.38593106
0.38453419
0.41167873
0.41769766
0.4200219
0.41769763
0.41167869
0.44858858
0.46283442
0.46855631
0.46283425
0.44858839
0.49875048
0.52736891
0.53924281
0.52736832
0.49874983
0.56420181
0.61679293
0.63861381
0.61679139
0.56420014
0.3843814
0.38575717
0.38626377
0.38575717
0.3843814
0.41106946
0.416978
0.41925903
0.41697799
0.41106947
0.44724621
0.46118138
0.46677517
0.46118131
0.44724617
0.49624802
0.52415045
0.53571947
0.52415016
0.49624778
0.56001508
0.61121698
0.6324697
0.61121614
0.56001431
0.38423327
0.3855886
0.38608777
0.3855886
0.38423327
0.41048078
0.41628305
0.41852267
0.41628305
0.41048078
0.44595398
0.45959196
0.46506367
0.4595919
0.44595395
0.49384827
0.52106872
0.53234814
0.52106846
0.49384805
0.55601101
0.60588714
0.62659606
0.60588633
0.55601024
0.38408991
0.38542554
0.38591754
0.38542554
0.38408992
0.40991268
0.41561295
0.41781289
0.41561297
0.40991272
0.44471018
0.45806374
0.46341884
0.45806377
0.44471027
0.49154308
0.5181106
0.52911289
0.5181106
0.49154319
0.55216499
0.6007596
0.62093933
0.60075945
0.55216501
0.38395071
0.38526723
0.38575228
0.38526723
0.38395071
0.4093629
0.41496491
0.41712663
0.41496491
0.4093629
0.44351108
0.45659236
0.46183597
0.45659235
0.44351109
0.48933001
0.51527572
0.52601454
0.51527564
0.48932998
0.54848566
0.59586091
0.61553701
0.59586059
0.54848542
0.38381563
0.38511368
0.38559201
0.38511368
0.38381563
0.40883072
0.41433807
0.416463
0.41433808
0.40883074
0.44235273
0.45517214
0.46030863
0.4551722
0.44235281
0.48719483
0.51254137
0.52302623
0.51254149
0.48719505
0.54493318
0.59112062
0.61030287
0.59112083
0.54493357
0.38368433
0.38496444
0.38543623
0.38496443
0.38368432
0.40831519
0.41373122
0.41582067
0.4137312
0.40831515
0.44123515
0.45380377
0.45883779
0.45380374
0.44123511
0.48514448
0.50992112
0.52016495
0.50992108
0.48514443
0.54153727
0.58659984
0.6053152
0.58659971
0.54153714
0.38355656
0.38481926
0.38528472
0.38481925
0.38355655
0.40781455
0.41314221
0.41519735
0.4131422
0.40781452
0.44015131
0.45247736
0.45741233
0.45247738
0.44015132
0.48315668
0.50738017
0.51738973
0.50738027
0.48315681
0.53823902
0.58219591
0.60044866
0.58219617
0.53823936
0.38343232
0.38467808
0.38513738
0.38467807
0.38343229
0.40732942
0.41257182
0.41459386
0.41257177
0.40732933
0.43910572
0.45119964
0.45604
0.45119956
0.43910557
0.48124932
0.50494815
0.51473616
0.50494803
0.48124911
0.53509218
0.57800868
0.59582775
0.57800849
0.53509188
0.38331103
0.3845403
0.3849936
0.38454029
0.383311
0.40685657
0.41201607
0.41400598
0.41201603
0.40685649
0.43808716
0.44995516
0.45470344
0.44995511
0.43808706
0.47938995
0.50257523
0.51214588
0.50257522
0.47938989
0.53201513
0.57389806
0.59128219
0.57389815
0.5320152
0.3831931
0.38440636
0.38485383
0.38440633
0.38319307
0.40639858
0.41147814
0.41343709
0.41147806
0.40639844
0.4371055
0.44875774
0.45341828
0.44875759
0.43710523
0.47760904
0.50030932
0.50967547
0.50030907
0.47760863
0.52908857
0.5700067
0.58698715
0.57000631
0.52908796
0.38307756
0.38427514
0.38471692
0.38427512
0.38307752
0.40595028
0.41095172
0.41288043
0.41095165
0.40595016
0.43614433
0.44758506
0.45215952
0.44758494
0.43614412
0.47586201
0.49808293
0.50724625
0.49808278
0.47586173
0.52620468
0.56615266
0.58272261
0.56615248
0.52620439
0.38296534
0.38414769
0.38458394
0.38414766
0.38296529
0.40551664
0.41044287
0.4123425
0.41044276
0.40551647
0.43521979
0.4464592
0.45095196
0.44645899
0.43521943
0.47419368
0.49596458
0.50493837
0.4959642
0.47419308
0.52347408
0.56252522
0.5787186
0.5625246
0.52347315
0.3828549
0.3840223
0.38445312
0.38402228
0.38285486
0.40509012
0.40994239
0.41181343
0.4099423
0.40508997
0.43430925
0.44534966
0.44976151
0.44534948
0.43430896
0.47254526
0.49386648
0.50264995
0.49386619
0.4725448
0.52075942
0.55889637
0.57470092
0.55889592
0.52075878
0.38274785
0.38390075
0.3843263
0.38390072
0.3827478
0.40467848
0.40945976
0.41130338
0.40945964
0.40467828
0.4334361
0.44428804
0.44862351
0.44428779
0.43343569
0.47097781
0.49188012
0.50048729
0.49187965
0.47097709
0.5182042
0.55550567
0.57095828
0.55550487
0.51820305
0.38264198
0.38378055
0.3842009
0.38378053
0.38264194
0.40427129
0.40898228
0.41079873
0.40898218
0.40427113
0.43257031
0.44323419
0.44749321
0.44323398
0.43256998
0.46941616
0.48989468
0.49832233
0.48989428
0.46941559
0.51563822
0.55207505
0.56715811
0.55207438
0.51563732
0.38253963
0.38366435
0.38407966
0.38366432
0.38253958
0.40387963
0.40852342
0.41031393
0.4085233
0.40387943
0.43174366
0.44223057
0.44641793
0.4422303
0.43174323
0.46793967
0.48802711
0.49629028
0.48802659
0.46793889
0.513241
0.54889808
0.56365172
0.54889718
0.51323974
0.38243782
0.38354877
0.38395908
0.38354875
0.38243778
0.40348962
0.40806633
0.4098309
0.40806623
0.40348946
0.43091747
0.44122586
0.44534065
0.44122563
0.43091712
0.46645449
0.48614073
0.4942338
0.48614028
0.46645385
0.51080589
0.54564241
0.56004376
0.5456416
0.51080485
0.38233979
0.38343748
0.38384296
0.38343745
0.38233975
0.40311621
0.40762915
0.40936911
0.40762903
0.40311602
0.43013315
0.44027497
0.44432235
0.4402747
0.43013273
0.46506058
0.48438092
0.49232014
0.4843804
0.46505981
0.50855207
0.54265987
0.55675249
0.54265895
0.50855081
0.38224159
0.383326
0.38372665
0.38332598
0.38224156
0.40274144
0.40719013
0.40890523
0.40719003
0.40274129
0.42934197
0.43931364
0.44329182
0.43931341
0.42934163
0.46364278
0.48258173
0.49035906
0.48258127
0.46364214
0.50623227
0.5395588
0.55331462
0.53955795
0.50623118
0.38214754
0.38321923
0.38361524
0.3832192
0.3821475
0.4023848
0.40677287
0.40846457
0.40677276
0.40238463
0.42859648
0.43841106
0.4423257
0.43841081
0.4285961
0.46232445
0.48092049
0.48855363
0.48091999
0.46232374
0.50410967
0.53675457
0.55022086
0.53675369
0.50410847
0.38205254
0.38311138
0.38350271
0.38311136
0.38205251
0.40202352
0.40634981
0.4080176
0.40634972
0.40202338
0.42783619
0.43748794
0.44133631
0.43748772
0.42783587
0.46096593
0.47919794
0.48667637
0.4791975
0.46096532
0.50189133
0.53378998
0.54693342
0.53378915
0.50189027
0.38196218
0.3830088
0.38339567
0.38300878
0.38196215
0.40168242
0.40595099
0.40759649
0.4059509
0.40168227
0.4271266
0.43663001
0.44041841
0.43662979
0.42712627
0.4597174
0.47762769
0.48497085
0.47762725
0.45971676
0.49988988
0.53115075
0.54402259
0.53114994
0.4998888
0.38187
0.38290415
0.38328647
0.38290413
0.38186997
0.40133299
0.40554197
0.40716439
0.4055419
0.40133287
0.42639341
0.43574038
0.43946505
0.43574018
0.42639313
0.45841079
0.47597223
0.4831669
0.47597182
0.45841024
0.49776048
0.52830625
0.54086776
0.52830548
0.4977595
0.38178309
0.38280549
0.38318353
0.38280548
0.38178306
0.40100642
0.40516038
0.40676155
0.4051603
0.40100629
0.42571735
0.43492412
0.43859214
0.43492393
0.42571706
0.45722735
0.47448684
0.48155456
0.47448645
0.4572268
0.49587204
0.52582123
0.53812822
0.52582052
0.4958711
0.38169336
0.38270363
0.38307722
0.38270361
0.38169334
0.40066732
0.40476359
0.40634237
0.40476352
0.40066722
0.42500772
0.43406358
0.43767004
0.43406341
0.42500748
0.45596583
0.47288963
0.47981423
0.47288927
0.45596534
0.49382004
0.52308176
0.53508971
0.52308108
0.49381918
0.38160973
0.38260868
0.38297814
0.38260867
0.38160971
0.40035446
0.40439826
0.40595678
0.4043982
0.40035436
0.42436329
0.43328666
0.43683959
0.4332865
0.42436306
0.45484377
0.47148431
0.47828982
0.47148397
0.4548433
0.49203817
0.52074247
0.53251229
0.52074186
0.49203738
0.3815221
0.3825092
0.38287432
0.38250919
0.38152208
0.40002425
0.40401195
0.40554867
0.4040119
0.40002417
0.42367387
0.43245102
0.43594422
0.43245088
0.42367367
0.45362086
0.46993702
0.47660404
0.46993671
0.45362044
0.49005277
0.51809395
0.52957486
0.51809337
0.49005202
0.38144161
0.38241782
0.38277895
0.38241781
0.38144159
0.39972451
0.4036622
0.4051796
0.40366215
0.39972443
0.42305969
0.43171172
0.4351544
0.43171159
0.4230595
0.45255745
0.46860822
0.47516371
0.46860794
0.45255707
0.48837267
0.515894
0.52715263
0.51589348
0.488372
0.38135574
0.38232034
0.3826772
0.38232033
0.38135573
0.39940175
0.40328468
0.40478075
0.40328464
0.39940168
0.42238719
0.4308969
0.43428133
0.43089678
0.42238702
0.45136688
0.4671028
0.47352369
0.46710254
0.45136653
0.48644343
0.51332291
0.52430168
0.51332242
0.48644279
0.3812783
0.38223243
0.38258545
0.38223242
0.38127829
0.39911477
0.40295009
0.40442777
0.40295005
0.39911472
0.42180242
0.43019421
0.43353106
0.43019411
0.42180227
0.45036041
0.46584828
0.47216501
0.46584805
0.4503601
0.48486191
0.51125788
0.52202985
0.51125744
0.48486135
0.38119386
0.38213655
0.38248536
0.38213655
0.38119385
0.39879801
0.40257963
0.40403635
0.4025796
0.39879796
0.42114348
0.42939605
0.43267583
0.42939596
0.42114336
0.44919585
0.46437668
0.47056204
0.46437648
0.44919558
0.48297853
0.50875102
0.51925115
0.50875061
0.48297801
0.38111946
0.38205211
0.38239722
0.3820521
0.38111945
0.39852374
0.40226013
0.40369939
0.4022601
0.3985237
0.42058795
0.42872974
0.43196489
0.42872966
0.42058784
0.44824578
0.46319562
0.46928406
0.46319544
0.44824554
0.48149409
0.50681854
0.517127
0.50681817
0.48149365
0.38103605
0.38195739
0.38229833
0.38195739
0.38103604
0.39821139
0.40189483
0.40331339
0.40189481
0.39821136
0.41993899
0.42794381
0.43112273
0.42794375
0.4199389
0.4471006
0.46174951
0.46770915
0.46174936
0.4471004
0.47964607
0.50436264
0.51440633
0.50436232
0.47964566
0.38096477
0.38187649
0.3822139
0.38187649
0.38096477
0.39795011
0.40159079
0.40299286
0.40159078
0.39795009
0.41941332
0.42731467
0.43045195
0.42731462
0.41941325
0.44620777
0.46064274
0.4665127
0.4606426
0.44620761
0.47825913
0.50256244
0.51242933
0.50256215
0.47825879
0.38088194
0.38178242
0.38211567
0.38178242
0.38088194
0.39764032
0.40122847
0.40260995
0.40122846
0.39764031
0.41877019
0.42653591
0.42961745
0.42653587
0.41877014
0.4450746
0.45921303
0.46495612
0.45921292
0.44507446
0.47643533
0.50014381
0.50975207
0.50014357
0.47643504
0.38081399
0.38170531
0.38203519
0.38170531
0.38081399
0.39739288
0.4009409
0.40230691
0.40094089
0.39739287
0.41827619
0.42594609
0.42898912
0.42594606
0.41827616
0.44424162
0.45818335
0.46384403
0.45818325
0.44424152
0.47514841
0.49847785
0.5079239
0.49847763
0.47514817
0.38073113
0.38161121
0.38193693
0.38161122
0.38073114
0.3970832
0.40057866
0.40192406
0.40057867
0.39708321
0.41763364
0.42516818
0.42815558
0.42516817
0.41763364
0.44311174
0.45675967
0.46229485
0.45675961
0.44311167
0.47333666
0.49608209
0.5052749
0.49608193
0.47333648
0.38066693
0.38153837
0.38186091
0.38153838
0.38066694
0.39685134
0.40030964
0.40164072
0.40030965
0.39685136
0.41717487
0.42462185
0.42757408
0.42462185
0.41717489
0.44234355
0.45581226
0.46127229
0.45581222
0.44234352
0.47215462
0.49455453
0.50359935
0.4945544
0.4721545
0.38058316
0.38144323
0.38176154
0.38144324
0.38058317
0.39653814
0.39994322
0.40125341
0.39994324
0.39653819
0.41652556
0.42383626
0.42673258
0.42383628
0.41652561
0.44120613
0.45438249
0.45971802
0.45438249
0.44120615
0.47034146
0.49216667
0.50096311
0.49216659
0.4703414
0.38052363
0.38137569
0.38169106
0.3813757
0.38052365
0.39632559
0.3996971
0.40099438
0.39969714
0.39632566
0.41610889
0.42334097
0.42620562
0.42334101
0.41610897
0.44051096
0.45352538
0.45879275
0.45352539
0.44051102
0.46927177
0.49078375
0.49944586
0.4907837
0.46927176
0.38043714
0.38127748
0.38158851
0.3812775
0.38043717
0.39600188
0.39931842
0.40059418
0.39931848
0.39600197
0.41544105
0.42253507
0.42534335
0.42253514
0.41544118
0.43935212
0.45207554
0.45721951
0.45207558
0.43935224
0.4674426
0.48838894
0.49680749
0.48838895
0.46744268
0.380385
0.3812184
0.38152686
0.38121842
0.38038504
0.39581877
0.39910649
0.40037106
0.39910656
0.39581888
0.4150798
0.42210389
0.42488374
0.42210399
0.41507997
0.4387421
0.45131937
0.45640153
0.45131944
0.43874227
0.46649526
0.4871586
0.49545564
0.48715863
0.46649539
0.38027597
0.38109444
0.38139736
0.38109447
0.38027602
0.39540799
0.39862666
0.39986433
0.39862677
0.39540816
0.41424094
0.42109575
0.42380676
0.42109591
0.4142412
0.43730262
0.44952712
0.45446016
0.44952726
0.4373029
0.46424386
0.48422679
0.4922321
0.48422689
0.46424411
0.62331397
0.67620461
0.69664606
0.67620451
0.62331389
0.97428192
1.0098274
1.0204513
1.0098274
0.9742819
1.0693365
1.0774476
1.0793891
1.0774476
1.0693365
1.0844185
1.0857372
1.0859781
1.0857372
1.0844186
1.0863739
1.0865582
1.0865792
1.0865582
1.0863739
0.44497604
0.46505012
0.47410638
0.46505023
0.44497617
0.68841807
0.76927477
0.79866838
0.7692758
0.68841919
0.94908579
1.0086325
1.0239484
1.0086364
0.94909079
1.058083
1.0744068
1.0775116
1.0744073
1.0580841
1.0816598
1.0851051
1.0855403
1.0851052
1.0816598
0.41478904
0.42302434
0.4266886
0.42302432
0.41478902
0.57859993
0.63841919
0.66394052
0.63841904
0.57859985
0.82919986
0.91214927
0.93815603
0.91214844
0.82919946
1.0069481
1.0490043
1.0578424
1.049002
1.0069464
1.0699959
1.0813028
1.082768
1.0813026
1.0699903
0.40598158
0.41119816
0.41321241
0.41119807
0.40598145
0.5256243
0.56826576
0.58723977
0.56826516
0.52562357
0.7378275
0.82676594
0.85775184
0.82676435
0.73782531
0.94719764
1.012928
1.0285135
1.0129273
0.94719574
1.0493899
1.0737229
1.0772218
1.0737237
1.0493891
0.4021595
0.40648436
0.40810374
0.40648435
0.40215948
0.49908307
0.53054139
0.54451268
0.53054122
0.4990829
0.67579029
0.75823678
0.78945206
0.75823624
0.6757897
0.88843975
0.97085995
0.99277064
0.9708605
0.88844027
1.0221542
1.0616163
1.0682461
1.0616176
1.0221565
0.39960649
0.40354574
0.40500338
0.40354574
0.39960647
0.4833298
0.50855043
0.51931772
0.50855032
0.48332969
0.63360801
0.70685917
0.73598645
0.70685862
0.63360748
0.83664565
0.92838367
0.95512123
0.92838338
0.8366452
0.99115442
1.0456638
1.0559874
1.0456634
0.9911548
0.39770619
0.40132799
0.40266642
0.401328
0.39770622
0.47267708
0.49418108
0.50305774
0.49418113
0.47267722
0.60386475
0.66833492
0.69482105
0.66833501
0.60386511
0.79326757
0.8885313
0.91868569
0.88853211
0.79326894
0.95955198
1.0273406
1.0416124
1.0273413
0.95955467
0.39622015
0.39956924
0.40080362
0.39956926
0.39622019
0.46480539
0.48381884
0.49150803
0.4838189
0.46480555
0.58189577
0.63884935
0.66267995
0.63884954
0.58189626
0.75724127
0.85221623
0.88444088
0.85221687
0.75724261
0.92875004
1.0075605
1.0257674
1.0075606
0.92875207
0.3950074
0.39812402
0.39927137
0.39812404
0.39500744
0.4586183
0.47576872
0.4826374
0.47576883
0.45861849
0.56489233
0.61559846
0.63700465
0.61559877
0.56489286
0.72705898
0.81932876
0.85250818
0.8193294
0.7270602
0.89928201
0.98673553
1.0087157
0.98673527
0.89928338
0.39398333
0.39691183
0.3979899
0.39691185
0.39398337
0.45353829
0.46924407
0.47550764
0.46924419
0.45353849
0.55119091
0.5968225
0.61614516
0.59682289
0.55119151
0.70142166
0.78968165
0.82294164
0.78968243
0.701423
0.87128231
0.96512822
0.99055986
0.96512842
0.87128394
0.39310483
0.3958684
0.39688947
0.39586841
0.39310486
0.44927066
0.46377752
0.46956125
0.4637776
0.44927078
0.53986273
0.58131835
0.59887985
0.58131864
0.53986312
0.67947779
0.76311889
0.7958142
0.76311941
0.67947863
0.84500747
0.94317754
0.97160477
0.94317753
0.84500834
0.39233715
0.39495932
0.3959324
0.39495933
0.39233717
0.44560865
0.45911774
0.46450785
0.4591178
0.44560875
0.53028846
0.56830254
0.58439184
0.56830278
0.53028877
0.66054115
0.73941789
0.77112168
0.73941842
0.66054187
0.82059654
0.92126181
0.95216973
0.92126239
0.82059761
0.39166
0.39416067
0.39509154
0.39416067
0.39166
0.44242927
0.45510229
0.46015848
0.45510231
0.4424293
0.52208344
0.55724866
0.57210046
0.55724877
0.52208358
0.6441019
0.71836991
0.74883254
0.7183702
0.64410228
0.79810788
0.89976376
0.93261512
0.89976431
0.79810862
0.39105598
0.39345072
0.39434391
0.39345071
0.39105598
0.43963377
0.45159346
0.45636269
0.45159345
0.43963376
0.51495575
0.54772094
0.56152718
0.54772095
0.51495577
0.6297192
0.69965658
0.72875883
0.6996567
0.62971935
0.77747474
0.87893172
0.91319664
0.87893233
0.77747532
0.39051166
0.39281318
0.39367232
0.39281317
0.39051165
0.43714642
0.44849181
0.45301084
0.44849176
0.43714637
0.50868465
0.53940746
0.55231901
0.53940736
0.50868454
0.61702797
0.6829788
0.71069103
0.68297867
0.61702785
0.75857319
0.85892943
0.89411982
0.85892971
0.75857334
0.39001698
0.39223537
0.39306354
0.39223537
0.39001697
0.43491152
0.44572034
0.45001843
0.44572029
0.43491145
0.50310756
0.5320663
0.54420133
0.53206614
0.5031074
0.60573705
0.66804785
0.69439527
0.66804755
0.60573675
0.74125229
0.83985041
0.8755399
0.83985037
0.74125206
0.389564
0.39170765
0.39250772
0.39170764
0.38956399
0.43288647
0.44322154
0.44732413
0.44322147
0.43288639
0.49810284
0.52552048
0.53697823
0.52552027
0.49810264
0.59561932
0.65462351
0.67966742
0.65462305
0.59561886
0.72536419
0.82174911
0.85757249
0.82174868
0.72536354
0.3891468
0.39122285
0.39199733
0.39122284
0.38914679
0.43103897
0.44095202
0.44488006
0.44095196
0.43103891
0.49357792
0.51963591
0.53049612
0.51963571
0.49357771
0.58649598
0.64250124
0.66631829
0.64250073
0.58649546
0.7107739
0.80465262
0.84031354
0.80465195
0.71077299
0.38876079
0.39077542
0.39152653
0.39077542
0.38876079
0.429344
0.43887854
0.44264967
0.43887851
0.42934396
0.48946017
0.51430874
0.5246369
0.51430858
0.48946
0.5782202
0.63150408
0.65417766
0.6315036
0.57821969
0.69734591
0.78854396
0.82380952
0.78854319
0.69734488
0.38840175
0.39036012
0.39108965
0.39036012
0.38840175
0.42778025
0.43697292
0.44060195
0.43697291
0.42778023
0.48569121
0.50945688
0.51930813
0.50945677
0.4856911
0.5706753
0.62148774
0.64310249
0.62148735
0.57067489
0.6849674
0.77340866
0.80810463
0.77340795
0.68496644
0.38806645
0.38997291
0.39068243
0.38997292
0.38806646
0.42633101
0.43521187
0.4387112
0.43521189
0.42633102
0.48222344
0.50501057
0.51443099
0.50501054
0.4822234
0.5637601
0.61231899
0.63295586
0.61231876
0.56375983
0.67352099
0.75918843
0.79318831
0.75918792
0.67352023
0.38775206
0.38961068
0.39030171
0.3896107
0.38775207
0.42498144
0.43357814
0.43695902
0.43357819
0.42498148
0.47901712
0.50091835
0.50994824
0.5009184
0.47901714
0.55739599
0.60389817
0.62363309
0.60389812
0.55739589
0.66292017
0.74585005
0.77906864
0.74584981
0.66291969
0.38745624
0.38927035
0.38994411
0.38927036
0.38745626
0.42371987
0.43205501
0.4353268
0.43205508
0.42371993
0.47603916
0.49713165
0.50580554
0.49713177
0.47603925
0.55151047
0.59612635
0.61502993
0.59612647
0.55151053
0.65306697
0.73331985
0.76570306
0.7333199
0.65306682
0.38717727
0.38894984
0.38960745
0.38894985
0.38717729
0.42253754
0.43063106
0.43380199
0.43063113
0.42253761
0.47326575
0.49361707
0.5019643
0.49361724
0.47326588
0.54605397
0.58893601
0.60707071
0.58893627
0.54605416
0.64390033
0.72156258
0.75308243
0.7215629
0.64390046
0.38691311
0.38864678
0.38928938
0.3886468
0.38691313
0.42142445
0.42929382
0.43237193
0.4292939
0.42142451
0.47066999
0.4903388
0.4983877
0.49033899
0.47067015
0.5409697
0.58225147
0.59967798
0.58225182
0.54096997
0.63533749
0.71050152
0.74114804
0.71050203
0.63533784
0.38666271
0.38835982
0.38898813
0.38835983
0.38666273
0.42037519
0.42803584
0.43102673
0.42803591
0.42037524
0.46823704
0.4872751
0.49504602
0.48727529
0.46823719
0.53622571
0.57602724
0.59279484
0.57602763
0.53622602
0.62733568
0.70010579
0.72988457
0.70010643
0.62733616
0.38642442
0.38808711
0.38870209
0.38808712
0.38642443
0.41938177
0.42684765
0.42975775
0.42684771
0.41938182
0.4659457
0.48439905
0.49191463
0.48439923
0.46594584
0.53177676
0.57020516
0.58636312
0.57020555
0.53177707
0.61982417
0.69030283
0.71922565
0.69030349
0.61982469
0.38619763
0.38782771
0.38843016
0.38782772
0.38619764
0.41844109
0.42572401
0.42855892
0.42572405
0.41844112
0.46378735
0.48169524
0.48897488
0.48169538
0.46378746