/*--------------------------------*- C++ -*----------------------------------*\
| =========                 |                                                 |
| \\      /  F ield         | OpenFOAM: The Open Source CFD Toolbox           |
|  \\    /   O peration     | Version:  2.3.x                                 |
|   \\  /    A nd           | Web:      www.OpenFOAM.org                      |
|    \\/     M anipulation  |                                                 |
\*---------------------------------------------------------------------------*/
FoamFile
{
    version     2.0;
    format      ascii;
    class       volVectorField;
    location    "0.021";
    object      U;
}
// * * * * * * * * * * * * * * * * * * * * * * * * * * * * * * * * * * * * * //

dimensions      [0 1 -1 0 0 0 0];

internalField   nonuniform List<vector> 
10000
(
(0.22701857 0.031490595 1.6919178)
(0.20708407 0.08840122 1.8115618)
(0.15659299 0.15659283 1.8479198)
(0.088401413 0.20708392 1.8115622)
(0.031490774 0.22701838 1.6919184)
(0.48874706 0.088744205 2.1650806)
(0.42376237 0.19396201 2.145124)
(0.3185439 0.31854397 2.1357777)
(0.19396191 0.42376221 2.1451237)
(0.08874424 0.48874689 2.1650796)
(0.4371602 0.090064271 2.1313955)
(0.35732699 0.16105013 2.1025727)
(0.25935523 0.25935553 2.0894378)
(0.16104993 0.35732712 2.1025727)
(0.090064115 0.43716012 2.131395)
(0.29873933 0.078054569 2.0675556)
(0.22740808 0.094637374 2.0541254)
(0.16083341 0.16083352 2.0504436)
(0.094637637 0.22740859 2.0541256)
(0.078054739 0.29873997 2.0675557)
(0.20136241 0.06510703 2.050154)
(0.15333312 0.052581777 2.0462947)
(0.10773585 0.10773576 2.0433273)
(0.052582044 0.15333334 2.046295)
(0.065107273 0.20136281 2.0501542)
(0.097754901 0.023649032 1.7663269)
(0.10624478 0.064736459 1.9533024)
(0.093659729 0.093658824 2.0160154)
(0.064737627 0.1062445 1.9533026)
(0.023650053 0.097755201 1.7663274)
(0.37651296 0.068658071 2.636189)
(0.35459612 0.16985497 2.6340567)
(0.27753822 0.27753755 2.6270488)
(0.169856 0.35459626 2.6340582)
(0.068659338 0.37651379 2.6361925)
(0.41416911 0.074425494 2.6597171)
(0.36006159 0.16473707 2.5989187)
(0.2746783 0.27467756 2.5794466)
(0.16473805 0.36006171 2.5989205)
(0.074426754 0.41417018 2.6597206)
(0.36648573 0.069304469 2.5621777)
(0.28997559 0.1240213 2.4837748)
(0.21057544 0.21057426 2.4583501)
(0.12402251 0.28997521 2.4837757)
(0.069305815 0.36648651 2.5621798)
(0.27258509 0.062662398 2.4458084)
(0.20506602 0.074106173 2.38323)
(0.14947906 0.14947773 2.3668298)
(0.074107336 0.20506472 2.3832302)
(0.062663675 0.2725848 2.4458094)
(0.022308665 0.010589427 1.468966)
(0.025206755 0.024862923 1.7091755)
(0.028769064 0.028767661 1.8009241)
(0.02486448 0.02520596 1.709174)
(0.010590627 0.022308784 1.4689631)
(0.14545741 0.034588908 2.8399691)
(0.17415628 0.10018681 2.9857559)
(0.15053594 0.15053352 3.0095757)
(0.10019015 0.17415551 2.9857553)
(0.034591267 0.14545808 2.8399659)
(0.23488654 0.041696537 3.0750781)
(0.2245444 0.11545016 3.0244446)
(0.17841481 0.17841221 3.0043794)
(0.11545318 0.22454265 3.024445)
(0.041699326 0.23488662 3.0750786)
(0.2405809 0.034483033 3.0011091)
(0.20233361 0.097231902 2.9079079)
(0.1534412 0.15343881 2.8818678)
(0.097234131 0.20233093 2.9079074)
(0.034485116 0.24057921 3.0011093)
(0.19427327 0.027098438 2.8545389)
(0.14747915 0.062449545 2.7757035)
(0.11166248 0.11166063 2.7555477)
(0.062451345 0.14747616 2.7757027)
(0.027099719 0.19427008 2.8545373)
(-0.0010799843 0.0041207968 1.1640002)
(-0.002116816 0.0066473171 1.3416129)
(0.0016626996 0.0016631911 1.4140943)
(0.0066466021 -0.0021170225 1.3416105)
(0.0041200784 -0.0010805503 1.1639958)
(0.098736518 0.024119458 2.7745881)
(0.10391086 0.06544115 2.9689315)
(0.095333834 0.095332812 3.0287329)
(0.065442253 0.10390947 2.9689283)
(0.024120393 0.098735444 2.7745822)
(0.16116091 0.024906562 3.2551343)
(0.15890864 0.084606303 3.2491209)
(0.13046107 0.13045965 3.2391583)
(0.084607859 0.15890681 3.2491185)
(0.024907621 0.16115916 3.2551294)
(0.17891521 0.020107931 3.2403219)
(0.15421029 0.076695749 3.1734129)
(0.1179026 0.11790161 3.1499579)
(0.076696836 0.15420852 3.1734107)
(0.020108425 0.17891298 3.2403178)
(0.15420287 0.014864103 3.1251077)
(0.10925167 0.050950455 3.0429265)
(0.082004112 0.082003741 3.0253202)
(0.050950883 0.10925035 3.042925)
(0.014863946 0.15420045 3.1251039)
(-0.0035012263 -0.001395715 1.0632476)
(-0.0041760482 -0.0023095748 1.2079216)
(-0.0039128422 -0.0039110094 1.2630691)
(-0.002312043 -0.0041752602 1.207922)
(-0.0013979768 -0.0035012763 1.0632473)
(0.047164972 0.0077934703 2.6606674)
(0.057328207 0.034325958 2.8937663)
(0.054890354 0.054891796 2.9713759)
(0.034323596 0.057327888 2.8937655)
(0.0077908955 0.047163463 2.6606652)
(0.11268565 0.013302517 3.3391188)
(0.11942379 0.062092237 3.3787191)
(0.099827155 0.099827806 3.3795714)
(0.062091279 0.11942338 3.3787173)
(0.013300939 0.11268408 3.3391155)
(0.14712723 0.012355035 3.3994511)
(0.13051252 0.06370898 3.3467476)
(0.10158953 0.10159016 3.3281622)
(0.063708242 0.13051252 3.3467459)
(0.012353845 0.14712632 3.3994474)
(0.1396264 0.010574382 3.308234)
(0.10164971 0.047098465 3.22931)
(0.074067761 0.074068718 3.2083116)
(0.047097338 0.10165011 3.2293091)
(0.010573201 0.1396258 3.3082308)
(-0.0021339757 -0.0019081525 1.0220349)
(-0.0035384517 -0.0040266538 1.1560768)
(-0.0044842042 -0.0044826729 1.2045093)
(-0.0040287289 -0.0035373454 1.1560779)
(-0.001910086 -0.0021335094 1.0220363)
(0.021458482 0.0008716424 2.5920616)
(0.026942014 0.014718717 2.8367758)
(0.026209665 0.026211824 2.9202637)
(0.014715705 0.026943188 2.8367766)
(0.0008684405 0.021458831 2.5920624)
(0.073541617 0.0055155628 3.3915599)
(0.083360153 0.043388441 3.4756136)
(0.072559164 0.072560368 3.4867544)
(0.043387006 0.083361137 3.475613)
(0.0055134045 0.073542197 3.3915588)
(0.11555312 0.0062314545 3.531065)
(0.10801553 0.052914479 3.4870113)
(0.084709243 0.084709928 3.4693586)
(0.052913921 0.10801661 3.4870102)
(0.0062303984 0.11555433 3.5310627)
(0.12219577 0.0065314917 3.4585492)
(0.094283435 0.044053587 3.3815693)
(0.068743941 0.068744344 3.3588353)
(0.044053153 0.094284366 3.3815689)
(0.0065309381 0.12219694 3.4585472)
(-0.00086578916 -0.0007624942 1.0003834)
(-0.0018738329 -0.0021404136 1.1322671)
(-0.0025499627 -0.0025491046 1.1792292)
(-0.0021419928 -0.0018729902 1.1322679)
(-0.0007640185 -0.00086544264 1.0003848)
(0.011220428 -0.00064122924 2.5522249)
(0.01272079 0.0064168983 2.8014762)
(0.012069716 0.012071614 2.8869287)
(0.0064136398 0.012722204 2.8014772)
(-0.00064456279 0.011221107 2.5522264)
(0.047018234 0.0012871311 3.4288467)
(0.055704993 0.029420839 3.5524419)
(0.049966651 0.049968047 3.57568)
(0.029418516 0.055706084 3.5524417)
(0.0012842718 0.047019144 3.4288464)
(0.086867881 0.0016219509 3.6461362)
(0.085284254 0.042657263 3.6154488)
(0.068193169 0.068194029 3.5981341)
(0.042656106 0.085285484 3.6154477)
(0.0016202854 0.086869442 3.6461341)
(0.10101497 0.0026395331 3.5936383)
(0.081885274 0.039300679 3.5187547)
(0.060029071 0.060029578 3.4948332)
(0.039299908 0.081886398 3.518754)
(0.002638477 0.10101664 3.5936363)
(-0.00032463543 -3.136883e-05 0.98811124)
(-0.00072307366 -0.00061381006 1.1200687)
(-0.00094213442 -0.00094162548 1.1670069)
(-0.00061486911 -0.00072252585 1.1200692)
(-3.2373971e-05 -0.00032446411 0.98811245)
(0.0072237863 -0.00060369628 2.5311282)
(0.0073615182 0.0035954003 2.7835736)
(0.006667475 0.0066689796 2.8698526)
(0.0035925213 0.0073627776 2.7835745)
(-0.00060654549 0.0072244512 2.53113)
(0.031550039 -0.00060601941 3.4592487)
(0.037966412 0.020095912 3.615906)
(0.034728328 0.034729807 3.6505626)
(0.020093191 0.037967526 3.615906)
(-0.0006089299 0.031551193 3.459249)
(0.065401195 -0.0010745082 3.7474626)
(0.067051019 0.033893714 3.734578)
(0.054459293 0.054460402 3.7189782)
(0.033892098 0.06705238 3.734577)
(-0.0010762945 0.065403049 3.7474612)
(0.082541748 0.00021547471 3.7173461)
(0.069733131 0.034056395 3.6472441)
(0.051090551 0.051091308 3.6224287)
(0.034055362 0.069734484 3.6472433)
(0.0002143113 0.082543779 3.7173445)
(-9.3650546e-05 0.00014938789 0.98055453)
(-0.00019788293 -7.134828e-05 1.1120426)
(-0.00024487363 -0.00024447542 1.1589094)
(-7.1984373e-05 -0.00019748407 1.112043)
(0.00014892932 -9.3637983e-05 0.98055553)
(0.0053965572 -0.00041397865 2.5215669)
(0.0054994868 0.0026349425 2.7755452)
(0.0047987749 0.0048000886 2.8621092)
(0.0026324137 0.0055005187 2.7755458)
(-0.00041602414 0.0053968373 2.5215684)
(0.022867173 -0.0012526676 3.4871431)
(0.027567225 0.014408569 3.6692193)
(0.025367415 0.025368874 3.7136853)
(0.014405689 0.027568035 3.6692193)
(-0.0012552695 0.022867847 3.4871434)
(0.051187889 -0.002252052 3.8373816)
(0.054445684 0.027492188 3.8439845)
(0.044724423 0.044725705 3.8310974)
(0.027490239 0.054446744 3.8439836)
(-0.0022539609 0.051189194 3.8373803)
(0.068785549 -0.0006796897 3.831097)
(0.060872966 0.029770157 3.7667791)
(0.044580119 0.044581186 3.7412163)
(0.029768822 0.060874241 3.7667781)
(-0.00068114553 0.06878719 3.8310953)
(1.3222516e-05 0.00019203278 0.97507411)
(2.8990135e-05 0.00016539352 1.1063441)
(2.3358793e-05 2.3501685e-05 1.1530803)
(0.0001651494 2.9095947e-05 1.1063448)
(0.00019200917 1.317873e-05 0.97507532)
(0.0043895469 -0.00035915828 2.5177613)
(0.0043266294 0.0020859295 2.7750558)
(0.0037565349 0.0037574679 2.8622325)
(0.0020843274 0.0043271482 2.7750568)
(-0.00036043572 0.00438951 2.5177633)
(0.017696956 -0.0014896129 3.5135178)
(0.021102915 0.01070581 3.7160059)
(0.019313079 0.019314599 3.7688378)
(0.010702952 0.021103438 3.7160063)
(-0.0014918473 0.017696993 3.5135188)
(0.041104119 -0.0026115344 3.9176331)
(0.04551645 0.022733407 3.9448973)
(0.037753506 0.037755183 3.9355402)
(0.022730866 0.045517244 3.9448969)
(-0.0026136987 0.041104512 3.9176327)
(0.059247207 -0.00075605797 3.9378545)
(0.054553718 0.026475056 3.8793474)
(0.040133801 0.040135568 3.8530767)
(0.026472867 0.054555021 3.8793466)
(-0.00075807544 0.059248166 3.9378532)
(5.2774033e-05 0.00017430213 0.97101629)
(2.9743921e-05 0.00015747888 1.1016444)
(2.7277311e-05 2.7030999e-05 1.1482416)
(0.00015771647 2.9608759e-05 1.1016453)
(0.00017480609 5.27073e-05 0.97101758)
(0.0034233315 -0.00022133801 2.5176304)
(0.0037759352 0.0018858674 2.7763742)
(0.0032086438 0.003209115 2.8643585)
(0.0018848791 0.0037760974 2.7763755)
(-0.00022137048 0.0034232244 2.5176327)
(0.013985428 -0.0014190643 3.5388088)
(0.016703422 0.0083147355 3.7573483)
(0.015125398 0.015126516 3.8172718)
(0.0083125177 0.016703574 3.7573491)
(-0.0014203355 0.013985157 3.5388104)
(0.033486497 -0.0026080976 3.9896583)
(0.038494172 0.019016606 4.0377441)
(0.032251517 0.032253002 4.0327092)
(0.019014252 0.03849451 4.0377442)
(-0.0026098272 0.033486268 3.9896585)
(0.051453174 -0.00066234383 4.037857)
(0.049350428 0.023711148 3.9848804)
(0.036615127 0.036616876 3.9583435)
(0.023708936 0.049351355 3.98488)
(-0.00066422562 0.051453451 4.0378563)
(2.3490375e-05 9.0258314e-05 0.9678911)
(-1.4357438e-05 9.3728256e-05 1.0980442)
(-6.9524746e-06 -7.6031736e-06 1.1446383)
(9.4468954e-05 -1.476765e-05 1.0980453)
(9.1213586e-05 2.3390678e-05 0.96789256)
(0.0027777199 -0.0002589827 2.5188497)
(0.0030181215 0.0015063756 2.7797605)
(0.0025129336 0.0025127915 2.8690712)
(0.0015062551 0.00301788 2.7797625)
(-0.00025824044 0.0027775252 2.5188524)
(0.011101847 -0.0013922013 3.5630779)
(0.013295204 0.0064383576 3.7950117)
(0.011857385 0.011858022 3.8610641)
(0.0064368681 0.013295005 3.7950132)
(-0.0013926099 0.011101258 3.5630804)
(0.02733013 -0.0025408697 4.0554208)
(0.032474089 0.015813748 4.1240542)
(0.027439397 0.027440626 4.1240058)
(0.015811582 0.032473995 4.124055)
(-0.0025421702 0.027329263 4.0554221)
(0.044539622 -0.00062448999 4.1325355)
(0.044344105 0.021107873 4.0857341)
(0.033256502 0.033258251 4.0596151)
(0.021105514 0.044344675 4.0857343)
(-0.00062624662 0.044539186 4.1325357)
(6.5575583e-06 3.3006469e-05 0.96571029)
(-2.926863e-05 7.2895316e-05 1.0956015)
(-1.4381936e-05 -1.5611253e-05 1.1422189)
(7.4369574e-05 -3.0058988e-05 1.0956026)
(3.4595746e-05 6.4874699e-06 0.96571171)
(0.0020930104 -0.00035199291 2.5217586)
(0.0022578864 0.0010870872 2.7852043)
(0.0018667522 0.0018656458 2.8756773)
(0.0010885313 0.0022572117 2.7852065)
(-0.00034988397 0.0020930127 2.5217616)
(0.0087451053 -0.0014118088 3.5866661)
(0.010503228 0.0048932083 3.8301181)
(0.0092279625 0.0092276312 3.9014017)
(0.0048933646 0.010502831 3.83012)
(-0.001410645 0.008744842 3.5866691)
(0.022230536 -0.0025096599 4.1159926)
(0.027114337 0.012948608 4.2042591)
(0.023104921 0.023105157 4.2097011)
(0.01294782 0.027113897 4.2042605)
(-0.0025095199 0.022229837 4.1159947)
(0.038329981 -0.00068133622 4.221932)
(0.039574768 0.018659784 4.1819466)
(0.029986323 0.02998699 4.1565593)
(0.018658681 0.039574713 4.1819475)
(-0.00068171532 0.038329397 4.2219333)
(3.7964332e-06 1.7491668e-05 0.96437675)
(-4.6039995e-05 8.0400408e-05 1.0941053)
(-1.8788812e-05 -2.0601353e-05 1.1407957)
(8.261233e-05 -4.7240579e-05 1.0941062)
(1.968682e-05 3.6952017e-06 0.96437778)
(0.0015334422 -0.00038619136 2.5261897)
(0.0016535866 0.00079796732 2.7918309)
(0.0013565293 0.0013543374 2.8835085)
(0.00080110859 0.0016524073 2.791833)
(-0.00038259247 0.0015336506 2.5261923)
(0.0068441026 -0.0013947689 3.6099629)
(0.0082966997 0.0037116172 3.863459)
(0.0071825862 0.0071810993 3.939311)
(0.0037136889 0.0082960655 3.8634611)
(-0.0013918908 0.0068442039 3.6099661)
(0.018059024 -0.0024346862 4.1726722)
(0.022635348 0.01057887 4.2795501)
(0.019378061 0.019377105 4.2907084)
(0.010579758 0.022634557 4.279552)
(-0.0024328885 0.018058618 4.172675)
(0.032841316 -0.00074998164 4.3071344)
(0.035020419 0.016384793 4.2750596)
(0.02686896 0.02686835 4.2505413)
(0.016385211 0.035019697 4.2750611)
(-0.00074872474 0.032840704 4.3071366)
(1.0638548e-07 1.3262404e-05 0.96365946)
(-5.7693945e-05 8.5182671e-05 1.0933411)
(-1.9430571e-05 -2.1728326e-05 1.140115)
(8.8075528e-05 -5.9275886e-05 1.0933417)
(1.5985977e-05 -2.3227643e-08 0.96365955)
(0.0011105035 -0.00037945232 2.5314736)
(0.0011824931 0.00058846994 2.799298)
(0.00096754238 0.0009642096 2.8921347)
(0.00059348175 0.0011808139 2.7992994)
(-0.00037433063 0.0011109647 2.5314746)
(0.0053660241 -0.0013211988 3.6327329)
(0.0065989255 0.0028422698 3.8952133)
(0.0056347776 0.0056318716 3.9751133)
(0.0028467515 0.0065981228 3.8952149)
(-0.0013163344 0.0053667672 3.6327351)
(0.014732697 -0.0023185019 4.2257142)
(0.018808993 0.008575125 4.3498619)
(0.016220391 0.016217792 4.3668974)
(0.008578449 0.018807908 4.3498638)
(-0.0023145276 0.014733053 4.2257168)
(0.028160422 -0.00080624616 4.3877652)
(0.031117804 0.0144414 4.3647006)
(0.024099505 0.02409693 4.3409819)
(0.014444271 0.031116275 4.3647024)
(-0.00080264406 0.02816018 4.3877678)
(-7.5638185e-06 9.4046736e-06 0.96348151)
(-7.0670308e-05 7.9978876e-05 1.0932013)
(-2.3205612e-05 -2.5800914e-05 1.1400745)
(8.3237732e-05 -7.2561411e-05 1.0932011)
(1.2290455e-05 -7.7460554e-06 0.96348021)
(0.00076117415 -0.00036492763 2.5375508)
(0.00079840266 0.00041209377 2.8075167)
(0.0006554106 0.00065119069 2.9014407)
(0.00041864385 0.00079623435 2.8075168)
(-0.00035875317 0.00076158241 2.5375495)
(0.0041692202 -0.0012360562 3.6552105)
(0.0052471936 0.0021661895 3.925867)
(0.0044246712 0.0044204924 4.009405)
(0.0021728422 0.0052461583 3.9258677)
(-0.0012296301 0.004170209 3.6552107)
(0.012033089 -0.0021899308 4.2759997)
(0.015671376 0.0069514553 4.4161726)
(0.013609531 0.013605436 4.4391173)
(0.0069570081 0.015669996 4.4161742)
(-0.0021841818 0.012033969 4.2760014)
(0.024147725 -0.00085630382 4.4648706)
(0.02758964 0.012707324 4.4519256)
(0.021543719 0.021539413 4.4290158)
(0.012712397 0.027587399 4.4519273)
(-0.00085076442 0.024147793 4.4648729)
(-7.5718548e-06 8.809665e-06 0.96364504)
(-7.3940848e-05 7.9139604e-05 1.0934085)
(-2.1251484e-05 -2.3811563e-05 1.1403406)
(8.2337467e-05 -7.5819591e-05 1.0934079)
(1.1489319e-05 -7.7708645e-06 0.96364269)
(0.00048488559 -0.00034465428 2.5441264)
(0.00049243592 0.00027364959 2.8161458)
(0.00040706009 0.00040229694 2.91108)
(0.00028109913 0.00048991219 2.8161447)
(-0.00033813555 0.00048520133 2.5441224)
(0.0031837059 -0.0011516649 3.6772015)
(0.0041358424 0.0016305222 3.9553284)
(0.0034548557 0.0034496656 4.0421887)
(0.0016389436 0.0041346039 3.9553276)
(-0.0011442073 0.0031847874 3.6771991)
(0.0097978098 -0.0020675081 4.3235609)
(0.013057282 0.0056065176 4.478505)
(0.011328812 0.011323418 4.5072007)
(0.0056140566 0.013055648 4.4785057)
(-0.0020603879 0.009799061 4.3235606)
(0.020684135 -0.0009060635 4.5380532)
(0.024404847 0.011131872 4.5357809)
(0.019292156 0.019286247 4.5140831)
(0.011138977 0.024401998 4.535782)
(-0.00089899301 0.020684474 4.5380543)
(-1.7011793e-06 8.0022802e-06 0.96413953)
(-7.0788575e-05 7.8245701e-05 1.0939933)
(-1.4841378e-05 -1.7245305e-05 1.1410216)
(8.0870335e-05 -7.2503558e-05 1.0939916)
(9.8396531e-06 -1.872001e-06 0.96413579)
(0.00025160455 -0.00032832325 2.5511787)
(0.00022840441 0.00015111051 2.8251868)
(0.0001903657 0.00018517726 2.9210819)
(0.00015830022 0.00022549674 2.8251843)
(-0.00032275426 0.00025178258 2.5511722)
(0.002337671 -0.0010804833 3.6989294)
(0.003178437 0.0011795968 3.9839883)
(0.0026369149 0.0026310546 4.0739278)
(0.0011884674 0.0031765422 3.9839862)
(-0.0010732391 0.0023385727 3.6989242)
(0.0078943991 -0.0019604848 4.3691379)
(0.010823521 0.0044700311 4.5378583)
(0.0093804709 0.0093743614 4.5720334)
(0.0044784675 0.01082151 4.537858)
(-0.0019530553 0.0078956653 4.3691354)
(0.0176248 -0.00097226428 4.6083678)
(0.021490285 0.0097004989 4.6174786)
(0.01718774 0.01718103 4.597586)
(0.0097085722 0.021487071 4.6174789)
(-0.00096470258 0.017625186 4.6083673)
(8.3745579e-06 8.8027489e-06 0.96494016)
(-6.4427823e-05 7.8719325e-05 1.0949254)
(-5.7945864e-06 -7.2139266e-06 1.1420498)
(8.0324925e-05 -6.5586598e-05 1.0949227)
(9.7443965e-06 8.1657139e-06 0.96493565)
(6.3152333e-05 -0.00031177426 2.5585562)
(7.3405953e-06 4.7506721e-05 2.8344824)
(1.0603086e-05 6.0930872e-06 2.9312866)
(5.3531604e-05 4.6742855e-06 2.8344779)
(-0.00030763107 6.2909716e-05 2.5585475)
(0.0016177763 -0.0010175931 3.7202121)
(0.0023464356 0.00079731308 4.0116949)
(0.0019355904 0.0019298481 4.104482)
(0.00080569066 0.0023443323 4.011691)
(-0.0010113544 0.0016182632 3.720204)
(0.006268889 -0.0018626285 4.412592)
(0.0089008929 0.0035139284 4.5940726)
(0.0077106692 0.0077045038 4.633388)
(0.0035223757 0.0088987711 4.5940709)
(-0.0018557579 0.0062699933 4.412587)
(0.014951057 -0.0010285563 4.6753358)
(0.018836222 0.0084037411 4.6960117)
(0.01523586 0.015229027 4.6782746)
(0.0084119721 0.018832964 4.696011)
(-0.0010214163 0.01495145 4.6753334)
(-3.6586198e-06 6.3560266e-06 0.96596255)
(-7.5262334e-05 6.7939534e-05 1.0960994)
(-1.7840766e-05 -1.779673e-05 1.1433196)
(6.8250374e-05 -7.5515751e-05 1.0960965)
(6.5720444e-06 -3.6952725e-06 0.96595782)
(-0.00011438383 -0.00029824473 2.566241)
(-0.00019881208 -4.7784873e-05 2.8440491)
(-0.00015897683 -0.00016177188 2.941718)
(-4.3656165e-05 -0.00020061485 2.8440438)
(-0.00029579375 -0.00011491689 2.5662313)
(0.00099663134 -0.00096068819 3.7412618)
(0.0016227302 0.00047020927 4.0388016)
(0.0013310696 0.0013264256 4.1342563)
(0.00047710036 0.0016208613 4.0387966)
(-0.0009561903 0.00099624121 3.741252)
(0.0048733365 -0.0017674711 4.4545638)
(0.0072347008 0.00270282 4.6480604)
(0.0062678656 0.0062625724 4.6922565)
(0.0027101257 0.0072327712 4.6480575)
(-0.0017621316 0.0048737186 4.4545567)
(0.01256555 -0.0010696325 4.7399727)
(0.016408113 0.0072314785 4.7726491)
(0.013421468 0.013415573 4.7575307)
(0.0072385869 0.016405282 4.7726472)
(-0.0010640419 0.012565635 4.7399684)
(-2.8033513e-05 4.2180841e-06 0.96716184)
(-8.7061484e-05 5.7846457e-05 1.0974648)
(-3.3259851e-05 -3.1849146e-05 1.1447775)
(5.6456549e-05 -8.6392779e-05 1.097462)
(2.7622737e-06 -2.8026425e-05 0.96715762)
(-0.00026203529 -0.00028756235 2.5741161)
(-0.00037629602 -0.00013782622 2.8537167)
(-0.00031099564 -0.00031165643 2.9522002)
(-0.00013677499 -0.000376986 2.853711)
(-0.00028794257 -0.00026248193 2.5741066)
(0.0004977021 -0.00089425418 3.7618778)
(0.0010012974 0.00020411616 4.0650772)
(0.00081716732 0.00081430287 4.163019)
(0.0002083112 0.00099992986 4.0650714)
(-0.00089234663 0.00049727694 3.7618674)
(0.0036767161 -0.0016706261 4.4947755)
(0.0057964409 0.0020282151 4.6994863)
(0.0050337569 0.0050300026 4.7482529)
(0.0020334435 0.0057949898 4.6994822)
(-0.0016675633 0.0036767393 4.494767)
(0.010478909 -0.0010908964 4.8016836)
(0.014212639 0.0061860221 4.846259)
(0.01175763 0.01175333 4.8339831)
(0.0061912324 0.014210551 4.8462559)
(-0.0010876387 0.010478771 4.8016776)
(-3.6336816e-05 6.2534513e-06 0.96852969)
(-9.4999041e-05 5.0957463e-05 1.0990275)
(-4.45808e-05 -4.1772854e-05 1.1464362)
(4.8220173e-05 -9.3567574e-05 1.0990252)
(3.8317761e-06 -3.6321232e-05 0.96852672)
(-0.00041940332 -0.00027835819 2.5822033)
(-0.00053588915 -0.00020816304 2.8635829)
(-0.00044028419 -0.00043833292 2.9628533)
(-0.00021018375 -0.00053535065 2.8635775)
(-0.00028121365 -0.00042038532 2.5821956)
(3.1192879e-05 -0.00085561915 3.7822736)
(0.00045926565 -4.025604e-05 4.0908844)
(0.0003700901 0.00036966304 4.1911718)
(-3.9344168e-05 0.00045868185 4.0908785)
(-0.00085669733 2.9815391e-05 3.7822637)
(0.0026431992 -0.0015868393 4.5338475)
(0.0045366796 0.0014410056 4.7492178)
(0.0039536373 0.0039521281 4.8023399)
(0.0014432528 0.0045359378 4.7492133)
(-0.0015867214 0.0026423101 4.5338386)
(0.0086400079 -0.0011060254 4.8615733)
(0.012213309 0.005238563 4.9182164)
(0.010219404 0.010217508 4.909128)
(0.005240825 0.012212335 4.9182125)
(-0.0011058224 0.0086394216 4.8615661)
(-4.2401755e-05 8.1301716e-06 0.97001642)
(-9.8473915e-05 4.5056459e-05 1.1007212)
(-4.9805863e-05 -4.5860648e-05 1.1482264)
(4.1174464e-05 -9.6361469e-05 1.1007196)
(4.9086075e-06 -4.2263928e-05 0.9700148)
(-0.00054695321 -0.00026665775 2.5903515)
(-0.00066933051 -0.00026791388 2.8734616)
(-0.0005525368 -0.00054796101 2.9734861)
(-0.00027286838 -0.00066737199 2.873457)
(-0.00027176425 -0.00054804076 2.5903463)
(-0.00036591943 -0.00081477527 3.8022283)
(-1.4369976e-05 -0.0002459219 4.1159443)
(-1.921737e-05 -1.7000387e-05 4.2184406)
(-0.00024845614 -1.3791237e-05 4.1159387)
(-0.00081873344 -0.00036773818 3.8022207)
(0.0017468867 -0.0015028791 4.5714159)
(0.0034354847 0.00094614355 4.7967954)
(0.0030213235 0.0030222779 4.8539999)
(0.00094513757 0.0034356289 4.7967905)
(-0.001505679 0.0017454013 4.5714078)
(0.0070126848 -0.0011158606 4.9189186)
(0.010407629 0.0043905173 4.9872965)
(0.008810737 0.0088114397 4.9814907)
(0.0043896338 0.010407824 4.9872919)
(-0.0011187858 0.0070117314 4.918911)
(-4.8146928e-05 1.0087543e-05 0.97163414)
(-0.00010139057 3.8618977e-05 1.1025588)
(-5.4592724e-05 -4.9924928e-05 1.1501595)
(3.4023535e-05 -9.8838698e-05 1.102558)
(6.4084308e-06 -4.7915577e-05 0.97163417)
(-0.00065263202 -0.00025466732 2.598659)
(-0.00078447283 -0.00032343671 2.8834637)
(-0.00065028293 -0.00064350224 2.9842049)
(-0.00033087761 -0.00078127643 2.8834605)
(-0.00026159011 -0.00065365122 2.598657)
(-0.00071042096 -0.00077687251 3.8220184)
(-0.0004324346 -0.0004298078 4.1406244)
(-0.00036919706 -0.00036439959 4.2452)
(-0.00043564085 -0.0004307809 4.14062)
(-0.00078360936 -0.00071281287 3.8220137)
(0.00095352816 -0.0014290686 4.608112)
(0.0024534888 0.00051739398 4.8430677)
(0.0021928979 0.0021964225 4.9041936)
(0.00051291026 0.002454505 4.8430632)
(-0.0014349785 0.00095108081 4.6081054)
(0.0055513064 -0.0011277352 4.974843)
(0.0087554096 0.0036230987 5.0549895)
(0.0075114422 0.0075149284 5.0527086)
(0.0036186273 0.0087568553 5.0549847)
(-0.0011338346 0.0055498345 4.9748358)
(-5.2133825e-05 1.2817094e-05 0.9733272)
(-0.00010282188 3.4275533e-05 1.1044825)
(-5.7048914e-05 -5.205547e-05 1.152185)
(2.9494118e-05 -0.00010022051 1.1044827)
(9.1638052e-06 -5.1751646e-05 0.97332866)
(-0.00073700921 -0.00024031448 2.6069603)
(-0.00088135441 -0.00036733857 2.8934178)
(-0.00073167948 -0.00072314395 2.9948692)
(-0.00037624363 -0.0008771684 2.893416)
(-0.00024815537 -0.0007379645 2.6069616)
(-0.0010180779 -0.00074204409 3.8413528)
(-0.00080374122 -0.00058447698 4.1646126)
(-0.00066950808 -0.00066254458 4.2711949)
(-0.00059287953 -0.00080087107 4.1646092)
(-0.00075073414 -0.0010207437 3.8413521)
(0.00024456109 -0.0013657707 4.6434752)
(0.0015890162 0.00014440801 4.8874765)
(0.0014708146 0.0014765417 4.9522812)
(0.00013697155 0.0015909556 4.8874727)
(-0.0013738892 0.00024177035 4.6434716)
(0.0042514256 -0.0011369331 5.0284943)
(0.007267102 0.0029308549 5.1199553)
(0.0063195831 0.0063253834 5.1211894)
(0.0029235624 0.0072695452 5.1199506)
(-0.0011453681 0.0042498198 5.0284881)
(-5.6888261e-05 1.4500554e-05 0.9751169)
(-0.00010383 2.7423561e-05 1.1065118)
(-5.8757721e-05 -5.3988131e-05 1.154309)
(2.2964969e-05 -0.0001013851 1.1065129)
(1.1096174e-05 -5.6454357e-05 0.9751194)
(-0.00080947044 -0.00022828354 2.6153698)
(-0.00096382997 -0.00041158677 2.9034482)
(-0.00079750109 -0.00078795833 3.0055596)
(-0.00042089727 -0.00095902657 2.903448)
(-0.0002365002 -0.00081043354 2.6153738)
(-0.0012869233 -0.00071069381 3.8605403)
(-0.0011312648 -0.00072864946 4.1882956)
(-0.0009527578 -0.00094418275 4.2967336)
(-0.00073856518 -0.0011272658 4.1882938)
(-0.00072068113 -0.0012896405 3.8605433)
(-0.00039157424 -0.0013130846 4.6781726)
(0.00080481359 -0.00018111247 4.9308714)
(0.00081504189 0.00082249043 4.9992536)
(-0.00019059833 0.00080739745 4.9308687)
(-0.001323118 -0.00039507438 4.6781715)
(0.0030789061 -0.0011471477 5.0810421)
(0.0059035775 0.0023068128 5.1838046)
(0.0052312041 0.0052388499 5.1887202)
(0.0022968637 0.0059068721 5.1838003)
(-0.0011576641 0.0030764979 5.0810378)
(-6.1108085e-05 1.6288598e-05 0.97695371)
(-0.00010511622 2.2316776e-05 1.1085999)
(-6.2020024e-05 -5.8175996e-05 1.1564941)
(1.8512714e-05 -0.00010284905 1.1086015)
(1.3276206e-05 -6.0747039e-05 0.97695733)
(-0.00086999935 -0.00021548372 2.623729)
(-0.0010348026 -0.00044585776 2.9134056)
(-0.00085600178 -0.00084684547 3.0161593)
(-0.00045496119 -0.0010296556 2.9134067)
(-0.00022362138 -0.00087094315 2.623736)
(-0.0015081578 -0.00067535749 3.879277)
(-0.0014104306 -0.00084180485 4.2113699)
(-0.0011801577 -0.0011710428 4.3215974)
(-0.00085269036 -0.0014057173 4.2113697)
(-0.00068596831 -0.0015108378 3.8792841)
(-0.00095864959 -0.0012646184 4.7116568)
(0.00011961328 -0.00046196726 4.9725932)
(0.00024435368 0.00025255738 5.0443341)
(-0.00047303427 0.00012284138 4.9725913)
(-0.0012749001 -0.00096089401 4.7116596)
(0.0020172392 -0.0011665368 5.1315256)
(0.0046746208 0.0017352962 5.2450614)
(0.0042276961 0.0042362189 5.2535738)
(0.0017243366 0.0046781362 5.2450579)
(-0.0011769791 0.0020158202 5.1315233)
(-6.5443832e-05 1.5368964e-05 0.97886884)
(-0.00010524062 1.6024851e-05 1.1107691)
(-6.3986353e-05 -6.141801e-05 1.1587646)
(1.3162852e-05 -0.00010343509 1.1107705)
(1.3060399e-05 -6.510515e-05 0.9788732)
(-0.00093293962 -0.00021121887 2.632175)
(-0.0010972865 -0.00047954217 2.923414)
(-0.00090690945 -0.0008991612 3.0268087)
(-0.0004875704 -0.0010920956 2.9234153)
(-0.00021850635 -0.00093331897 2.6321843)
(-0.0017170339 -0.00065519133 3.8979048)
(-0.001656215 -0.00094637499 4.2341839)
(-0.0013793597 -0.0013708247 4.3461753)
(-0.00095724664 -0.0016513268 4.2341847)
(-0.00066547842 -0.0017187095 3.8979153)
(-0.0014261482 -0.0012103076 4.7446455)
(-0.00049471911 -0.00072275251 5.0135133)
(-0.00026569219 -0.00025742684 5.0885328)
(-0.00073440547 -0.00049143567 5.0135131)
(-0.001220652 -0.0014279078 4.7446518)
(0.001088897 -0.0011402548 5.1811494)
(0.003542474 0.0012346642 5.3054551)
(0.0033055164 0.0033141019 5.3176826)
(0.0012230591 0.0035460341 5.3054524)
(-0.0011506145 0.0010877152 5.181149)
(-6.7414779e-05 1.5669672e-05 0.98081767)
(-0.00010423537 1.1165344e-05 1.1129746)
(-6.5094953e-05 -6.3679356e-05 1.1610693)
(9.3178415e-06 -0.00010322857 1.1129758)
(1.444849e-05 -6.7184307e-05 0.98082221)
(-0.00098169796 -0.00020466326 2.6405601)
(-0.0011474045 -0.00050742509 2.9333205)
(-0.00094972428 -0.00094365862 3.0373271)
(-0.00051411666 -0.0011432499 2.9333219)
(-0.00021011061 -0.00098173769 2.6405704)
(-0.0018980385 -0.00063418271 3.9161257)
(-0.0018731733 -0.0010379646 4.2564023)
(-0.0015561646 -0.0015485835 4.3700553)
(-0.0010478333 -0.0018683069 4.2564033)
(-0.0006427633 -0.0018987242 3.9161378)
(-0.0018424746 -0.0011598277 4.7765613)
(-0.00103976 -0.00094946443 5.052937)
(-0.0007222214 -0.00071472702 5.1310074)
(-0.00096048582 -0.0010364334 5.0529369)
(-0.0011690113 -0.0018432934 4.7765694)
(0.0002584382 -0.0011117524 5.2288313)
(0.0025188161 0.00079128613 5.3633508)
(0.0024620946 0.0024700695 5.3791619)
(0.00078021249 0.0025221011 5.363349)
(-0.0011208533 0.00025784677 5.2288328)
(-6.9644625e-05 1.5865074e-05 0.98282131)
(-0.00010520352 7.2666254e-06 1.1152352)
(-6.6980189e-05 -6.6526196e-05 1.1634389)
(6.5896355e-06 -0.00010495932 1.115237)
(1.5844148e-05 -6.9510832e-05 0.9828256)
(-0.0010229068 -0.00019924494 2.648995)
(-0.0011894871 -0.00052825803 2.9432383)
(-0.00098756063 -0.00098303061 3.0478727)
(-0.00053325438 -0.0011869416 2.9432414)
(-0.0002022175 -0.0010225985 2.6490053)
(-0.0020543302 -0.00061713077 3.9342385)
(-0.0020595825 -0.0011121237 4.2783716)
(-0.0017117675 -0.001704886 4.3936889)
(-0.0011203216 -0.0020553877 4.2783739)
(-0.00062309915 -0.0020544595 3.9342516)
(-0.002221746 -0.0011251543 4.8080676)
(-0.0015576029 -0.0011701579 5.0917318)
(-0.0011362157 -0.00112928 5.1728545)
(-0.0011790916 -0.0015534638 5.0917332)
(-0.001132206 -0.0022220171 4.8080774)
(-0.00050998001 -0.0010823763 5.2758823)
(0.0015667453 0.00037997979 5.4206545)
(0.0016878377 0.0016942709 5.440127)
(0.00037065579 0.0015701736 5.4206533)
(-0.0010897936 -0.00050987963 5.2758854)
(-7.2417314e-05 1.8884693e-05 0.98484365)
(-0.00010847927 2.3543194e-06 1.1175227)
(-6.8935924e-05 -6.9731427e-05 1.1658283)
(2.9820025e-06 -0.00010877136 1.1175246)
(1.9742682e-05 -7.238764e-05 0.98484719)
(-0.0010608557 -0.00018835375 2.6573442)
(-0.0012402395 -0.00055451625 2.953045)
(-0.0010225061 -0.001020222 3.0582662)
(-0.00055695735 -0.0012386229 2.9530486)
(-0.00018916294 -0.0010602738 2.6573533)